NUFEB Simulation 

       1 atoms 
       5 atom types 

   0   5e-5  xlo xhi 
   0   5e-5  ylo yhi 
   0   2.5e-5  zlo zhi 

 Atoms 

     1 1 150 2.5e-5 2.5e-5 1e-5 1e-5 1e-5 1.5e-5
     
