ITEM: TIMESTEP
0
ITEM: NUMBER OF ATOMS
1
ITEM: BOX BOUNDS ff ff ff
0.0000000000000000e+00 5.0000000000000002e-05
0.0000000000000000e+00 5.0000000000000002e-05
0.0000000000000000e+00 2.5000000000000001e-05
ITEM: ATOMS id type x y z shapex shapey shapez
1 1 2.5e-05 2.5e-05 1e-05 1e-05 1e-05 1.5e-05
ITEM: TIMESTEP
1
ITEM: NUMBER OF ATOMS
1
ITEM: BOX BOUNDS ff ff ff
0.0000000000000000e+00 5.0000000000000002e-05
0.0000000000000000e+00 5.0000000000000002e-05
0.0000000000000000e+00 2.5000000000000001e-05
ITEM: ATOMS id type x y z shapex shapey shapez
1 1 2.5e-05 2.5e-05 1e-05 1e-05 1e-05 1.5e-05
ITEM: TIMESTEP
2
ITEM: NUMBER OF ATOMS
1
ITEM: BOX BOUNDS ff ff ff
0.0000000000000000e+00 5.0000000000000002e-05
0.0000000000000000e+00 5.0000000000000002e-05
0.0000000000000000e+00 2.5000000000000001e-05
ITEM: ATOMS id type x y z shapex shapey shapez
1 1 2.5e-05 2.5e-05 1e-05 1e-05 1e-05 1.5e-05
ITEM: TIMESTEP
3
ITEM: NUMBER OF ATOMS
1
ITEM: BOX BOUNDS ff ff ff
0.0000000000000000e+00 5.0000000000000002e-05
0.0000000000000000e+00 5.0000000000000002e-05
0.0000000000000000e+00 2.5000000000000001e-05
ITEM: ATOMS id type x y z shapex shapey shapez
1 1 2.5e-05 2.5e-05 1e-05 1e-05 1e-05 1.5e-05
ITEM: TIMESTEP
4
ITEM: NUMBER OF ATOMS
1
ITEM: BOX BOUNDS ff ff ff
0.0000000000000000e+00 5.0000000000000002e-05
0.0000000000000000e+00 5.0000000000000002e-05
0.0000000000000000e+00 2.5000000000000001e-05
ITEM: ATOMS id type x y z shapex shapey shapez
1 1 2.5e-05 2.5e-05 1e-05 1e-05 1e-05 1.5e-05
ITEM: TIMESTEP
5
ITEM: NUMBER OF ATOMS
1
ITEM: BOX BOUNDS ff ff ff
0.0000000000000000e+00 5.0000000000000002e-05
0.0000000000000000e+00 5.0000000000000002e-05
0.0000000000000000e+00 2.5000000000000001e-05
ITEM: ATOMS id type x y z shapex shapey shapez
1 1 2.5e-05 2.5e-05 1e-05 1e-05 1e-05 1.5e-05
ITEM: TIMESTEP
6
ITEM: NUMBER OF ATOMS
1
ITEM: BOX BOUNDS ff ff ff
0.0000000000000000e+00 5.0000000000000002e-05
0.0000000000000000e+00 5.0000000000000002e-05
0.0000000000000000e+00 2.5000000000000001e-05
ITEM: ATOMS id type x y z shapex shapey shapez
1 1 2.5e-05 2.5e-05 1e-05 1e-05 1e-05 1.5e-05
ITEM: TIMESTEP
7
ITEM: NUMBER OF ATOMS
1
ITEM: BOX BOUNDS ff ff ff
0.0000000000000000e+00 5.0000000000000002e-05
0.0000000000000000e+00 5.0000000000000002e-05
0.0000000000000000e+00 2.5000000000000001e-05
ITEM: ATOMS id type x y z shapex shapey shapez
1 1 2.5e-05 2.5e-05 1e-05 1e-05 1e-05 1.5e-05
ITEM: TIMESTEP
8
ITEM: NUMBER OF ATOMS
1
ITEM: BOX BOUNDS ff ff ff
0.0000000000000000e+00 5.0000000000000002e-05
0.0000000000000000e+00 5.0000000000000002e-05
0.0000000000000000e+00 2.5000000000000001e-05
ITEM: ATOMS id type x y z shapex shapey shapez
1 1 2.5e-05 2.5e-05 1e-05 1e-05 1e-05 1.5e-05
ITEM: TIMESTEP
9
ITEM: NUMBER OF ATOMS
1
ITEM: BOX BOUNDS ff ff ff
0.0000000000000000e+00 5.0000000000000002e-05
0.0000000000000000e+00 5.0000000000000002e-05
0.0000000000000000e+00 2.5000000000000001e-05
ITEM: ATOMS id type x y z shapex shapey shapez
1 1 2.5e-05 2.5e-05 1e-05 1e-05 1e-05 1.5e-05
ITEM: TIMESTEP
10
ITEM: NUMBER OF ATOMS
1
ITEM: BOX BOUNDS ff ff ff
0.0000000000000000e+00 5.0000000000000002e-05
0.0000000000000000e+00 5.0000000000000002e-05
0.0000000000000000e+00 2.5000000000000001e-05
ITEM: ATOMS id type x y z shapex shapey shapez
1 1 2.5e-05 2.5e-05 1e-05 1e-05 1e-05 1.5e-05
ITEM: TIMESTEP
11
ITEM: NUMBER OF ATOMS
1
ITEM: BOX BOUNDS ff ff ff
0.0000000000000000e+00 5.0000000000000002e-05
0.0000000000000000e+00 5.0000000000000002e-05
0.0000000000000000e+00 2.5000000000000001e-05
ITEM: ATOMS id type x y z shapex shapey shapez
1 1 2.5e-05 2.5e-05 1e-05 1e-05 1e-05 1.5e-05
ITEM: TIMESTEP
12
ITEM: NUMBER OF ATOMS
1
ITEM: BOX BOUNDS ff ff ff
0.0000000000000000e+00 5.0000000000000002e-05
0.0000000000000000e+00 5.0000000000000002e-05
0.0000000000000000e+00 2.5000000000000001e-05
ITEM: ATOMS id type x y z shapex shapey shapez
1 1 2.5e-05 2.5e-05 1e-05 1e-05 1e-05 1.5e-05
ITEM: TIMESTEP
13
ITEM: NUMBER OF ATOMS
1
ITEM: BOX BOUNDS ff ff ff
0.0000000000000000e+00 5.0000000000000002e-05
0.0000000000000000e+00 5.0000000000000002e-05
0.0000000000000000e+00 2.5000000000000001e-05
ITEM: ATOMS id type x y z shapex shapey shapez
1 1 2.5e-05 2.5e-05 1e-05 1e-05 1e-05 1.5e-05
ITEM: TIMESTEP
14
ITEM: NUMBER OF ATOMS
1
ITEM: BOX BOUNDS ff ff ff
0.0000000000000000e+00 5.0000000000000002e-05
0.0000000000000000e+00 5.0000000000000002e-05
0.0000000000000000e+00 2.5000000000000001e-05
ITEM: ATOMS id type x y z shapex shapey shapez
1 1 2.5e-05 2.5e-05 1e-05 1e-05 1e-05 1.5e-05
ITEM: TIMESTEP
15
ITEM: NUMBER OF ATOMS
1
ITEM: BOX BOUNDS ff ff ff
0.0000000000000000e+00 5.0000000000000002e-05
0.0000000000000000e+00 5.0000000000000002e-05
0.0000000000000000e+00 2.5000000000000001e-05
ITEM: ATOMS id type x y z shapex shapey shapez
1 1 2.5e-05 2.5e-05 1e-05 1e-05 1e-05 1.5e-05
ITEM: TIMESTEP
16
ITEM: NUMBER OF ATOMS
2
ITEM: BOX BOUNDS ff ff ff
0.0000000000000000e+00 5.0000000000000002e-05
0.0000000000000000e+00 5.0000000000000002e-05
0.0000000000000000e+00 2.5000000000000001e-05
ITEM: ATOMS id type x y z shapex shapey shapez
1 1 2.48398e-05 2.66966e-05 1e-05 1e-05 1e-05 1.5e-05
2 1 2.51602e-05 2.33034e-05 1e-05 1e-05 1e-05 1.5e-05
ITEM: TIMESTEP
17
ITEM: NUMBER OF ATOMS
2
ITEM: BOX BOUNDS ff ff ff
0.0000000000000000e+00 5.0000000000000002e-05
0.0000000000000000e+00 5.0000000000000002e-05
0.0000000000000000e+00 2.5000000000000001e-05
ITEM: ATOMS id type x y z shapex shapey shapez
1 1 2.45136e-05 3.01522e-05 1e-05 1e-05 1e-05 1.5e-05
2 1 2.54864e-05 1.98478e-05 1e-05 1e-05 1e-05 1.5e-05
ITEM: TIMESTEP
18
ITEM: NUMBER OF ATOMS
2
ITEM: BOX BOUNDS ff ff ff
0.0000000000000000e+00 5.0000000000000002e-05
0.0000000000000000e+00 5.0000000000000002e-05
0.0000000000000000e+00 2.5000000000000001e-05
ITEM: ATOMS id type x y z shapex shapey shapez
1 1 2.45198e-05 3.00858e-05 1e-05 1e-05 1e-05 1.5e-05
2 1 2.54802e-05 1.99142e-05 1e-05 1e-05 1e-05 1.5e-05
ITEM: TIMESTEP
19
ITEM: NUMBER OF ATOMS
2
ITEM: BOX BOUNDS ff ff ff
0.0000000000000000e+00 5.0000000000000002e-05
0.0000000000000000e+00 5.0000000000000002e-05
0.0000000000000000e+00 2.5000000000000001e-05
ITEM: ATOMS id type x y z shapex shapey shapez
1 1 2.45225e-05 3.00578e-05 1e-05 1e-05 1e-05 1.5e-05
2 1 2.54775e-05 1.99422e-05 1e-05 1e-05 1e-05 1.5e-05
ITEM: TIMESTEP
20
ITEM: NUMBER OF ATOMS
2
ITEM: BOX BOUNDS ff ff ff
0.0000000000000000e+00 5.0000000000000002e-05
0.0000000000000000e+00 5.0000000000000002e-05
0.0000000000000000e+00 2.5000000000000001e-05
ITEM: ATOMS id type x y z shapex shapey shapez
1 1 2.45238e-05 3.00437e-05 1e-05 1e-05 1e-05 1.5e-05
2 1 2.54762e-05 1.99563e-05 1e-05 1e-05 1e-05 1.5e-05
ITEM: TIMESTEP
21
ITEM: NUMBER OF ATOMS
2
ITEM: BOX BOUNDS ff ff ff
0.0000000000000000e+00 5.0000000000000002e-05
0.0000000000000000e+00 5.0000000000000002e-05
0.0000000000000000e+00 2.5000000000000001e-05
ITEM: ATOMS id type x y z shapex shapey shapez
1 1 2.45246e-05 3.00352e-05 1e-05 1e-05 1e-05 1.5e-05
2 1 2.54754e-05 1.99648e-05 1e-05 1e-05 1e-05 1.5e-05
ITEM: TIMESTEP
22
ITEM: NUMBER OF ATOMS
2
ITEM: BOX BOUNDS ff ff ff
0.0000000000000000e+00 5.0000000000000002e-05
0.0000000000000000e+00 5.0000000000000002e-05
0.0000000000000000e+00 2.5000000000000001e-05
ITEM: ATOMS id type x y z shapex shapey shapez
1 1 2.45251e-05 3.00295e-05 1e-05 1e-05 1e-05 1.5e-05
2 1 2.54749e-05 1.99705e-05 1e-05 1e-05 1e-05 1.5e-05
ITEM: TIMESTEP
23
ITEM: NUMBER OF ATOMS
2
ITEM: BOX BOUNDS ff ff ff
0.0000000000000000e+00 5.0000000000000002e-05
0.0000000000000000e+00 5.0000000000000002e-05
0.0000000000000000e+00 2.5000000000000001e-05
ITEM: ATOMS id type x y z shapex shapey shapez
1 1 2.45255e-05 3.00253e-05 1e-05 1e-05 1e-05 1.5e-05
2 1 2.54745e-05 1.99747e-05 1e-05 1e-05 1e-05 1.5e-05
ITEM: TIMESTEP
24
ITEM: NUMBER OF ATOMS
2
ITEM: BOX BOUNDS ff ff ff
0.0000000000000000e+00 5.0000000000000002e-05
0.0000000000000000e+00 5.0000000000000002e-05
0.0000000000000000e+00 2.5000000000000001e-05
ITEM: ATOMS id type x y z shapex shapey shapez
1 1 2.45258e-05 3.00222e-05 1e-05 1e-05 1e-05 1.5e-05
2 1 2.54742e-05 1.99778e-05 1e-05 1e-05 1e-05 1.5e-05
ITEM: TIMESTEP
25
ITEM: NUMBER OF ATOMS
2
ITEM: BOX BOUNDS ff ff ff
0.0000000000000000e+00 5.0000000000000002e-05
0.0000000000000000e+00 5.0000000000000002e-05
0.0000000000000000e+00 2.5000000000000001e-05
ITEM: ATOMS id type x y z shapex shapey shapez
1 1 2.45261e-05 3.00198e-05 1e-05 1e-05 1e-05 1.5e-05
2 1 2.54739e-05 1.99802e-05 1e-05 1e-05 1e-05 1.5e-05
ITEM: TIMESTEP
26
ITEM: NUMBER OF ATOMS
2
ITEM: BOX BOUNDS ff ff ff
0.0000000000000000e+00 5.0000000000000002e-05
0.0000000000000000e+00 5.0000000000000002e-05
0.0000000000000000e+00 2.5000000000000001e-05
ITEM: ATOMS id type x y z shapex shapey shapez
1 1 2.45262e-05 3.00179e-05 1e-05 1e-05 1e-05 1.5e-05
2 1 2.54738e-05 1.99821e-05 1e-05 1e-05 1e-05 1.5e-05
ITEM: TIMESTEP
27
ITEM: NUMBER OF ATOMS
2
ITEM: BOX BOUNDS ff ff ff
0.0000000000000000e+00 5.0000000000000002e-05
0.0000000000000000e+00 5.0000000000000002e-05
0.0000000000000000e+00 2.5000000000000001e-05
ITEM: ATOMS id type x y z shapex shapey shapez
1 1 2.45264e-05 3.00163e-05 1e-05 1e-05 1e-05 1.5e-05
2 1 2.54736e-05 1.99837e-05 1e-05 1e-05 1e-05 1.5e-05
ITEM: TIMESTEP
28
ITEM: NUMBER OF ATOMS
2
ITEM: BOX BOUNDS ff ff ff
0.0000000000000000e+00 5.0000000000000002e-05
0.0000000000000000e+00 5.0000000000000002e-05
0.0000000000000000e+00 2.5000000000000001e-05
ITEM: ATOMS id type x y z shapex shapey shapez
1 1 2.45265e-05 3.00149e-05 1e-05 1e-05 1e-05 1.5e-05
2 1 2.54735e-05 1.99851e-05 1e-05 1e-05 1e-05 1.5e-05
ITEM: TIMESTEP
29
ITEM: NUMBER OF ATOMS
2
ITEM: BOX BOUNDS ff ff ff
0.0000000000000000e+00 5.0000000000000002e-05
0.0000000000000000e+00 5.0000000000000002e-05
0.0000000000000000e+00 2.5000000000000001e-05
ITEM: ATOMS id type x y z shapex shapey shapez
1 1 2.45266e-05 3.00138e-05 1e-05 1e-05 1e-05 1.5e-05
2 1 2.54734e-05 1.99862e-05 1e-05 1e-05 1e-05 1.5e-05
ITEM: TIMESTEP
30
ITEM: NUMBER OF ATOMS
2
ITEM: BOX BOUNDS ff ff ff
0.0000000000000000e+00 5.0000000000000002e-05
0.0000000000000000e+00 5.0000000000000002e-05
0.0000000000000000e+00 2.5000000000000001e-05
ITEM: ATOMS id type x y z shapex shapey shapez
1 1 2.45267e-05 3.00128e-05 1e-05 1e-05 1e-05 1.5e-05
2 1 2.54733e-05 1.99872e-05 1e-05 1e-05 1e-05 1.5e-05
ITEM: TIMESTEP
31
ITEM: NUMBER OF ATOMS
4
ITEM: BOX BOUNDS ff ff ff
0.0000000000000000e+00 5.0000000000000002e-05
0.0000000000000000e+00 5.0000000000000002e-05
0.0000000000000000e+00 2.5000000000000001e-05
ITEM: ATOMS id type x y z shapex shapey shapez
1 1 2.4558e-05 3.03614e-05 1e-05 1e-05 1e-05 1.5e-05
2 1 2.37367e-05 1.98958e-05 1e-05 1e-05 1e-05 1.5e-05
3 2 2.44813e-05 2.97738e-05 1e-05 1e-05 1e-05 1.5e-05
4 2 2.7224e-05 1.99691e-05 1e-05 1e-05 1e-05 1.5e-05
ITEM: TIMESTEP
32
ITEM: NUMBER OF ATOMS
4
ITEM: BOX BOUNDS ff ff ff
0.0000000000000000e+00 5.0000000000000002e-05
0.0000000000000000e+00 5.0000000000000002e-05
0.0000000000000000e+00 2.5000000000000001e-05
ITEM: ATOMS id type x y z shapex shapey shapez
1 1 2.58404e-05 3.3008e-05 1e-05 1e-05 1e-05 1.5e-05
2 1 2.01659e-05 1.93036e-05 1e-05 1e-05 1e-05 1.5e-05
3 2 2.31452e-05 2.78669e-05 1e-05 1e-05 1e-05 1.5e-05
4 2 3.08486e-05 1.98215e-05 1e-05 1e-05 1e-05 1.5e-05
ITEM: TIMESTEP
33
ITEM: NUMBER OF ATOMS
4
ITEM: BOX BOUNDS ff ff ff
0.0000000000000000e+00 5.0000000000000002e-05
0.0000000000000000e+00 5.0000000000000002e-05
0.0000000000000000e+00 2.5000000000000001e-05
ITEM: ATOMS id type x y z shapex shapey shapez
1 1 2.77765e-05 3.61171e-05 1e-05 1e-05 1e-05 1.5e-05
2 1 2.02269e-05 1.74347e-05 1e-05 1e-05 1e-05 1.5e-05
3 2 2.11012e-05 2.7202e-05 1e-05 1e-05 1e-05 1.5e-05
4 2 3.08953e-05 1.92462e-05 1e-05 1e-05 1e-05 1.5e-05
ITEM: TIMESTEP
34
ITEM: NUMBER OF ATOMS
4
ITEM: BOX BOUNDS ff ff ff
0.0000000000000000e+00 5.0000000000000002e-05
0.0000000000000000e+00 5.0000000000000002e-05
0.0000000000000000e+00 2.5000000000000001e-05
ITEM: ATOMS id type x y z shapex shapey shapez
1 1 2.82277e-05 3.67114e-05 1e-05 1e-05 1e-05 1.5e-05
2 1 2.04426e-05 1.70875e-05 1e-05 1e-05 1e-05 1.5e-05
3 2 2.06309e-05 2.70359e-05 1e-05 1e-05 1e-05 1.5e-05
4 2 3.06988e-05 1.91652e-05 1e-05 1e-05 1e-05 1.5e-05
ITEM: TIMESTEP
35
ITEM: NUMBER OF ATOMS
4
ITEM: BOX BOUNDS ff ff ff
0.0000000000000000e+00 5.0000000000000002e-05
0.0000000000000000e+00 5.0000000000000002e-05
0.0000000000000000e+00 2.5000000000000001e-05
ITEM: ATOMS id type x y z shapex shapey shapez
1 1 2.8349e-05 3.68653e-05 1e-05 1e-05 1e-05 1.5e-05
2 1 2.04944e-05 1.69946e-05 1e-05 1e-05 1e-05 1.5e-05
3 2 2.05224e-05 2.69771e-05 1e-05 1e-05 1e-05 1.5e-05
4 2 3.06342e-05 1.9163e-05 1e-05 1e-05 1e-05 1.5e-05
ITEM: TIMESTEP
36
ITEM: NUMBER OF ATOMS
4
ITEM: BOX BOUNDS ff ff ff
0.0000000000000000e+00 5.0000000000000002e-05
0.0000000000000000e+00 5.0000000000000002e-05
0.0000000000000000e+00 2.5000000000000001e-05
ITEM: ATOMS id type x y z shapex shapey shapez
1 1 2.83885e-05 3.69153e-05 1e-05 1e-05 1e-05 1.5e-05
2 1 2.05125e-05 1.69603e-05 1e-05 1e-05 1e-05 1.5e-05
3 2 2.04985e-05 2.69533e-05 1e-05 1e-05 1e-05 1.5e-05
4 2 3.06005e-05 1.91711e-05 1e-05 1e-05 1e-05 1.5e-05
ITEM: TIMESTEP
37
ITEM: NUMBER OF ATOMS
4
ITEM: BOX BOUNDS ff ff ff
0.0000000000000000e+00 5.0000000000000002e-05
0.0000000000000000e+00 5.0000000000000002e-05
0.0000000000000000e+00 2.5000000000000001e-05
ITEM: ATOMS id type x y z shapex shapey shapez
1 1 2.84015e-05 3.69316e-05 1e-05 1e-05 1e-05 1.5e-05
2 1 2.05203e-05 1.69464e-05 1e-05 1e-05 1e-05 1.5e-05
3 2 2.04973e-05 2.69434e-05 1e-05 1e-05 1e-05 1.5e-05
4 2 3.05809e-05 1.91785e-05 1e-05 1e-05 1e-05 1.5e-05
ITEM: TIMESTEP
38
ITEM: NUMBER OF ATOMS
4
ITEM: BOX BOUNDS ff ff ff
0.0000000000000000e+00 5.0000000000000002e-05
0.0000000000000000e+00 5.0000000000000002e-05
0.0000000000000000e+00 2.5000000000000001e-05
ITEM: ATOMS id type x y z shapex shapey shapez
1 1 2.84053e-05 3.69364e-05 1e-05 1e-05 1e-05 1.5e-05
2 1 2.05242e-05 1.69406e-05 1e-05 1e-05 1e-05 1.5e-05
3 2 2.05014e-05 2.69393e-05 1e-05 1e-05 1e-05 1.5e-05
4 2 3.05691e-05 1.91837e-05 1e-05 1e-05 1e-05 1.5e-05
ITEM: TIMESTEP
39
ITEM: NUMBER OF ATOMS
4
ITEM: BOX BOUNDS ff ff ff
0.0000000000000000e+00 5.0000000000000002e-05
0.0000000000000000e+00 5.0000000000000002e-05
0.0000000000000000e+00 2.5000000000000001e-05
ITEM: ATOMS id type x y z shapex shapey shapez
1 1 2.8406e-05 3.69374e-05 1e-05 1e-05 1e-05 1.5e-05
2 1 2.05265e-05 1.6938e-05 1e-05 1e-05 1e-05 1.5e-05
3 2 2.05059e-05 2.69374e-05 1e-05 1e-05 1e-05 1.5e-05
4 2 3.05616e-05 1.91873e-05 1e-05 1e-05 1e-05 1.5e-05
ITEM: TIMESTEP
40
ITEM: NUMBER OF ATOMS
4
ITEM: BOX BOUNDS ff ff ff
0.0000000000000000e+00 5.0000000000000002e-05
0.0000000000000000e+00 5.0000000000000002e-05
0.0000000000000000e+00 2.5000000000000001e-05
ITEM: ATOMS id type x y z shapex shapey shapez
1 1 2.8406e-05 3.69374e-05 1e-05 1e-05 1e-05 1.5e-05
2 1 2.05279e-05 1.69367e-05 1e-05 1e-05 1e-05 1.5e-05
3 2 2.05095e-05 2.69362e-05 1e-05 1e-05 1e-05 1.5e-05
4 2 3.05566e-05 1.91897e-05 1e-05 1e-05 1e-05 1.5e-05
ITEM: TIMESTEP
41
ITEM: NUMBER OF ATOMS
4
ITEM: BOX BOUNDS ff ff ff
0.0000000000000000e+00 5.0000000000000002e-05
0.0000000000000000e+00 5.0000000000000002e-05
0.0000000000000000e+00 2.5000000000000001e-05
ITEM: ATOMS id type x y z shapex shapey shapez
1 1 2.8406e-05 3.69374e-05 1e-05 1e-05 1e-05 1.5e-05
2 1 2.05289e-05 1.69357e-05 1e-05 1e-05 1e-05 1.5e-05
3 2 2.05122e-05 2.69354e-05 1e-05 1e-05 1e-05 1.5e-05
4 2 3.05529e-05 1.91916e-05 1e-05 1e-05 1e-05 1.5e-05
ITEM: TIMESTEP
42
ITEM: NUMBER OF ATOMS
4
ITEM: BOX BOUNDS ff ff ff
0.0000000000000000e+00 5.0000000000000002e-05
0.0000000000000000e+00 5.0000000000000002e-05
0.0000000000000000e+00 2.5000000000000001e-05
ITEM: ATOMS id type x y z shapex shapey shapez
1 1 2.8406e-05 3.69374e-05 1e-05 1e-05 1e-05 1.5e-05
2 1 2.05296e-05 1.6935e-05 1e-05 1e-05 1e-05 1.5e-05
3 2 2.05142e-05 2.69347e-05 1e-05 1e-05 1e-05 1.5e-05
4 2 3.05502e-05 1.9193e-05 1e-05 1e-05 1e-05 1.5e-05
ITEM: TIMESTEP
43
ITEM: NUMBER OF ATOMS
4
ITEM: BOX BOUNDS ff ff ff
0.0000000000000000e+00 5.0000000000000002e-05
0.0000000000000000e+00 5.0000000000000002e-05
0.0000000000000000e+00 2.5000000000000001e-05
ITEM: ATOMS id type x y z shapex shapey shapez
1 1 2.8406e-05 3.69374e-05 1e-05 1e-05 1e-05 1.5e-05
2 1 2.05301e-05 1.69344e-05 1e-05 1e-05 1e-05 1.5e-05
3 2 2.05158e-05 2.69342e-05 1e-05 1e-05 1e-05 1.5e-05
4 2 3.05481e-05 1.91941e-05 1e-05 1e-05 1e-05 1.5e-05
ITEM: TIMESTEP
44
ITEM: NUMBER OF ATOMS
4
ITEM: BOX BOUNDS ff ff ff
0.0000000000000000e+00 5.0000000000000002e-05
0.0000000000000000e+00 5.0000000000000002e-05
0.0000000000000000e+00 2.5000000000000001e-05
ITEM: ATOMS id type x y z shapex shapey shapez
1 1 2.8406e-05 3.69373e-05 1e-05 1e-05 1e-05 1.5e-05
2 1 2.05305e-05 1.69339e-05 1e-05 1e-05 1e-05 1.5e-05
3 2 2.05171e-05 2.69337e-05 1e-05 1e-05 1e-05 1.5e-05
4 2 3.05464e-05 1.9195e-05 1e-05 1e-05 1e-05 1.5e-05
ITEM: TIMESTEP
45
ITEM: NUMBER OF ATOMS
4
ITEM: BOX BOUNDS ff ff ff
0.0000000000000000e+00 5.0000000000000002e-05
0.0000000000000000e+00 5.0000000000000002e-05
0.0000000000000000e+00 2.5000000000000001e-05
ITEM: ATOMS id type x y z shapex shapey shapez
1 1 2.8406e-05 3.69373e-05 1e-05 1e-05 1e-05 1.5e-05
2 1 2.05308e-05 1.69335e-05 1e-05 1e-05 1e-05 1.5e-05
3 2 2.05182e-05 2.69334e-05 1e-05 1e-05 1e-05 1.5e-05
4 2 3.0545e-05 1.91958e-05 1e-05 1e-05 1e-05 1.5e-05
ITEM: TIMESTEP
46
ITEM: NUMBER OF ATOMS
6
ITEM: BOX BOUNDS ff ff ff
0.0000000000000000e+00 5.0000000000000002e-05
0.0000000000000000e+00 5.0000000000000002e-05
0.0000000000000000e+00 2.5000000000000001e-05
ITEM: ATOMS id type x y z shapex shapey shapez
1 1 2.99829e-05 3.6508e-05 1e-05 1e-05 1e-05 1.5e-05
2 1 2.10593e-05 1.61883e-05 1e-05 1e-05 1e-05 1.5e-05
3 2 2.0499e-05 2.7066e-05 1e-05 1e-05 1e-05 1.5e-05
4 2 3.06527e-05 1.92344e-05 1e-05 1e-05 1e-05 1.5e-05
5 2 2.68621e-05 3.74025e-05 1e-05 1e-05 1e-05 1.5e-05
6 1 1.98808e-05 1.74715e-05 1e-05 1e-05 1e-05 1.5e-05
ITEM: TIMESTEP
47
ITEM: NUMBER OF ATOMS
6
ITEM: BOX BOUNDS ff ff ff
0.0000000000000000e+00 5.0000000000000002e-05
0.0000000000000000e+00 5.0000000000000002e-05
0.0000000000000000e+00 2.5000000000000001e-05
ITEM: ATOMS id type x y z shapex shapey shapez
1 1 3.30468e-05 3.50937e-05 1e-05 1e-05 1e-05 1.5e-05
2 1 2.3071e-05 1.21557e-05 1e-05 1e-05 1e-05 1.5e-05
3 2 2.15596e-05 2.87221e-05 1e-05 1e-05 1e-05 1.5e-05
4 2 3.14208e-05 1.99004e-05 1e-05 1e-05 1e-05 1.5e-05
5 2 2.31662e-05 3.83461e-05 1e-05 1e-05 1e-05 1.5e-05
6 1 1.66724e-05 1.96528e-05 1e-05 1e-05 1e-05 1.5e-05
ITEM: TIMESTEP
48
ITEM: NUMBER OF ATOMS
6
ITEM: BOX BOUNDS ff ff ff
0.0000000000000000e+00 5.0000000000000002e-05
0.0000000000000000e+00 5.0000000000000002e-05
0.0000000000000000e+00 2.5000000000000001e-05
ITEM: ATOMS id type x y z shapex shapey shapez
1 1 3.2828e-05 3.46545e-05 1e-05 1e-05 1e-05 1.5e-05
2 1 2.35191e-05 1.05773e-05 1e-05 1e-05 1e-05 1.5e-05
3 2 2.24888e-05 2.92956e-05 1e-05 1e-05 1e-05 1.5e-05
4 2 3.20048e-05 2.03106e-05 1e-05 1e-05 1e-05 1.5e-05
5 2 2.29212e-05 3.9185e-05 1e-05 1e-05 1e-05 1.5e-05
6 1 1.5175e-05 1.98477e-05 1e-05 1e-05 1e-05 1.5e-05
ITEM: TIMESTEP
49
ITEM: NUMBER OF ATOMS
6
ITEM: BOX BOUNDS ff ff ff
0.0000000000000000e+00 5.0000000000000002e-05
0.0000000000000000e+00 5.0000000000000002e-05
0.0000000000000000e+00 2.5000000000000001e-05
ITEM: ATOMS id type x y z shapex shapey shapez
1 1 3.28287e-05 3.45412e-05 1e-05 1e-05 1e-05 1.5e-05
2 1 2.36914e-05 1.02758e-05 1e-05 1e-05 1e-05 1.5e-05
3 2 2.26696e-05 2.95166e-05 1e-05 1e-05 1e-05 1.5e-05
4 2 3.21847e-05 2.02792e-05 1e-05 1e-05 1e-05 1.5e-05
5 2 2.28457e-05 3.94654e-05 1e-05 1e-05 1e-05 1.5e-05
6 1 1.47166e-05 1.97926e-05 1e-05 1e-05 1e-05 1.5e-05
ITEM: TIMESTEP
50
ITEM: NUMBER OF ATOMS
6
ITEM: BOX BOUNDS ff ff ff
0.0000000000000000e+00 5.0000000000000002e-05
0.0000000000000000e+00 5.0000000000000002e-05
0.0000000000000000e+00 2.5000000000000001e-05
ITEM: ATOMS id type x y z shapex shapey shapez
1 1 3.28211e-05 3.44842e-05 1e-05 1e-05 1e-05 1.5e-05
2 1 2.38002e-05 1.01636e-05 1e-05 1e-05 1e-05 1.5e-05
3 2 2.27054e-05 2.96249e-05 1e-05 1e-05 1e-05 1.5e-05
4 2 3.22775e-05 2.02237e-05 1e-05 1e-05 1e-05 1.5e-05
5 2 2.28289e-05 3.95961e-05 1e-05 1e-05 1e-05 1.5e-05
6 1 1.45038e-05 1.97783e-05 1e-05 1e-05 1e-05 1.5e-05
ITEM: TIMESTEP
51
ITEM: NUMBER OF ATOMS
6
ITEM: BOX BOUNDS ff ff ff
0.0000000000000000e+00 5.0000000000000002e-05
0.0000000000000000e+00 5.0000000000000002e-05
0.0000000000000000e+00 2.5000000000000001e-05
ITEM: ATOMS id type x y z shapex shapey shapez
1 1 3.28139e-05 3.44356e-05 1e-05 1e-05 1e-05 1.5e-05
2 1 2.38695e-05 1.01048e-05 1e-05 1e-05 1e-05 1.5e-05
3 2 2.27097e-05 2.96904e-05 1e-05 1e-05 1e-05 1.5e-05
4 2 3.23383e-05 2.01888e-05 1e-05 1e-05 1e-05 1.5e-05
5 2 2.28198e-05 3.96725e-05 1e-05 1e-05 1e-05 1.5e-05
6 1 1.43857e-05 1.97786e-05 1e-05 1e-05 1e-05 1.5e-05
ITEM: TIMESTEP
52
ITEM: NUMBER OF ATOMS
6
ITEM: BOX BOUNDS ff ff ff
0.0000000000000000e+00 5.0000000000000002e-05
0.0000000000000000e+00 5.0000000000000002e-05
0.0000000000000000e+00 2.5000000000000001e-05
ITEM: ATOMS id type x y z shapex shapey shapez
1 1 3.28069e-05 3.43874e-05 1e-05 1e-05 1e-05 1.5e-05
2 1 2.39196e-05 1.0073e-05 1e-05 1e-05 1e-05 1.5e-05
3 2 2.27047e-05 2.97344e-05 1e-05 1e-05 1e-05 1.5e-05
4 2 3.2379e-05 2.01683e-05 1e-05 1e-05 1e-05 1.5e-05
5 2 2.28123e-05 3.97224e-05 1e-05 1e-05 1e-05 1.5e-05
6 1 1.43143e-05 1.97852e-05 1e-05 1e-05 1e-05 1.5e-05
ITEM: TIMESTEP
53
ITEM: NUMBER OF ATOMS
6
ITEM: BOX BOUNDS ff ff ff
0.0000000000000000e+00 5.0000000000000002e-05
0.0000000000000000e+00 5.0000000000000002e-05
0.0000000000000000e+00 2.5000000000000001e-05
ITEM: ATOMS id type x y z shapex shapey shapez
1 1 3.27996e-05 3.43369e-05 1e-05 1e-05 1e-05 1.5e-05
2 1 2.3959e-05 1.00565e-05 1e-05 1e-05 1e-05 1.5e-05
3 2 2.26969e-05 2.97663e-05 1e-05 1e-05 1e-05 1.5e-05
4 2 3.24074e-05 2.01587e-05 1e-05 1e-05 1e-05 1.5e-05
5 2 2.28051e-05 3.97578e-05 1e-05 1e-05 1e-05 1.5e-05
6 1 1.42688e-05 1.97947e-05 1e-05 1e-05 1e-05 1.5e-05
ITEM: TIMESTEP
54
ITEM: NUMBER OF ATOMS
6
ITEM: BOX BOUNDS ff ff ff
0.0000000000000000e+00 5.0000000000000002e-05
0.0000000000000000e+00 5.0000000000000002e-05
0.0000000000000000e+00 2.5000000000000001e-05
ITEM: ATOMS id type x y z shapex shapey shapez
1 1 3.27921e-05 3.42821e-05 1e-05 1e-05 1e-05 1.5e-05
2 1 2.39921e-05 1.00496e-05 1e-05 1e-05 1e-05 1.5e-05
3 2 2.26885e-05 2.9791e-05 1e-05 1e-05 1e-05 1.5e-05
4 2 3.24276e-05 2.01582e-05 1e-05 1e-05 1e-05 1.5e-05
5 2 2.27978e-05 3.97846e-05 1e-05 1e-05 1e-05 1.5e-05
6 1 1.42388e-05 1.98053e-05 1e-05 1e-05 1e-05 1.5e-05
ITEM: TIMESTEP
55
ITEM: NUMBER OF ATOMS
6
ITEM: BOX BOUNDS ff ff ff
0.0000000000000000e+00 5.0000000000000002e-05
0.0000000000000000e+00 5.0000000000000002e-05
0.0000000000000000e+00 2.5000000000000001e-05
ITEM: ATOMS id type x y z shapex shapey shapez
1 1 3.27844e-05 3.42212e-05 1e-05 1e-05 1e-05 1.5e-05
2 1 2.40215e-05 1.00498e-05 1e-05 1e-05 1e-05 1.5e-05
3 2 2.26799e-05 2.98111e-05 1e-05 1e-05 1e-05 1.5e-05
4 2 3.2442e-05 2.01662e-05 1e-05 1e-05 1e-05 1.5e-05
5 2 2.27903e-05 3.98061e-05 1e-05 1e-05 1e-05 1.5e-05
6 1 1.42187e-05 1.98164e-05 1e-05 1e-05 1e-05 1.5e-05
ITEM: TIMESTEP
56
ITEM: NUMBER OF ATOMS
6
ITEM: BOX BOUNDS ff ff ff
0.0000000000000000e+00 5.0000000000000002e-05
0.0000000000000000e+00 5.0000000000000002e-05
0.0000000000000000e+00 2.5000000000000001e-05
ITEM: ATOMS id type x y z shapex shapey shapez
1 1 3.27765e-05 3.41517e-05 1e-05 1e-05 1e-05 1.5e-05
2 1 2.40493e-05 1.00562e-05 1e-05 1e-05 1e-05 1.5e-05
3 2 2.26712e-05 2.98284e-05 1e-05 1e-05 1e-05 1.5e-05
4 2 3.24518e-05 2.01829e-05 1e-05 1e-05 1e-05 1.5e-05
5 2 2.27826e-05 3.98243e-05 1e-05 1e-05 1e-05 1.5e-05
6 1 1.42053e-05 1.98274e-05 1e-05 1e-05 1e-05 1.5e-05
ITEM: TIMESTEP
57
ITEM: NUMBER OF ATOMS
6
ITEM: BOX BOUNDS ff ff ff
0.0000000000000000e+00 5.0000000000000002e-05
0.0000000000000000e+00 5.0000000000000002e-05
0.0000000000000000e+00 2.5000000000000001e-05
ITEM: ATOMS id type x y z shapex shapey shapez
1 1 3.27684e-05 3.40696e-05 1e-05 1e-05 1e-05 1.5e-05
2 1 2.40774e-05 1.0069e-05 1e-05 1e-05 1e-05 1.5e-05
3 2 2.26631e-05 2.98447e-05 1e-05 1e-05 1e-05 1.5e-05
4 2 3.24574e-05 2.02097e-05 1e-05 1e-05 1e-05 1.5e-05
5 2 2.27748e-05 3.98408e-05 1e-05 1e-05 1e-05 1.5e-05
6 1 1.41958e-05 1.98369e-05 1e-05 1e-05 1e-05 1.5e-05
ITEM: TIMESTEP
58
ITEM: NUMBER OF ATOMS
6
ITEM: BOX BOUNDS ff ff ff
0.0000000000000000e+00 5.0000000000000002e-05
0.0000000000000000e+00 5.0000000000000002e-05
0.0000000000000000e+00 2.5000000000000001e-05
ITEM: ATOMS id type x y z shapex shapey shapez
1 1 3.27601e-05 3.39687e-05 1e-05 1e-05 1e-05 1.5e-05
2 1 2.41078e-05 1.00898e-05 1e-05 1e-05 1e-05 1.5e-05
3 2 2.26551e-05 2.98608e-05 1e-05 1e-05 1e-05 1.5e-05
4 2 3.24585e-05 2.02503e-05 1e-05 1e-05 1e-05 1.5e-05
5 2 2.27668e-05 3.9857e-05 1e-05 1e-05 1e-05 1.5e-05
6 1 1.41886e-05 1.98443e-05 1e-05 1e-05 1e-05 1.5e-05
ITEM: TIMESTEP
59
ITEM: NUMBER OF ATOMS
6
ITEM: BOX BOUNDS ff ff ff
0.0000000000000000e+00 5.0000000000000002e-05
0.0000000000000000e+00 5.0000000000000002e-05
0.0000000000000000e+00 2.5000000000000001e-05
ITEM: ATOMS id type x y z shapex shapey shapez
1 1 3.27514e-05 3.38365e-05 1e-05 1e-05 1e-05 1.5e-05
2 1 2.4143e-05 1.01219e-05 1e-05 1e-05 1e-05 1.5e-05
3 2 2.26457e-05 2.98772e-05 1e-05 1e-05 1e-05 1.5e-05
4 2 3.2454e-05 2.03121e-05 1e-05 1e-05 1e-05 1.5e-05
5 2 2.27586e-05 3.98733e-05 1e-05 1e-05 1e-05 1.5e-05
6 1 1.41842e-05 1.98497e-05 1e-05 1e-05 1e-05 1.5e-05
ITEM: TIMESTEP
60
ITEM: NUMBER OF ATOMS
6
ITEM: BOX BOUNDS ff ff ff
0.0000000000000000e+00 5.0000000000000002e-05
0.0000000000000000e+00 5.0000000000000002e-05
0.0000000000000000e+00 2.5000000000000001e-05
ITEM: ATOMS id type x y z shapex shapey shapez
1 1 3.27415e-05 3.36456e-05 1e-05 1e-05 1e-05 1.5e-05
2 1 2.41884e-05 1.01734e-05 1e-05 1e-05 1e-05 1.5e-05
3 2 2.2633e-05 2.98949e-05 1e-05 1e-05 1e-05 1.5e-05
4 2 3.24407e-05 2.04131e-05 1e-05 1e-05 1e-05 1.5e-05
5 2 2.27499e-05 3.98907e-05 1e-05 1e-05 1e-05 1.5e-05
6 1 1.41834e-05 1.98531e-05 1e-05 1e-05 1e-05 1.5e-05
ITEM: TIMESTEP
61
ITEM: NUMBER OF ATOMS
9
ITEM: BOX BOUNDS ff ff ff
0.0000000000000000e+00 5.0000000000000002e-05
0.0000000000000000e+00 5.0000000000000002e-05
0.0000000000000000e+00 2.5000000000000001e-05
ITEM: ATOMS id type x y z shapex shapey shapez
1 1 3.1877e-05 3.31433e-05 1e-05 1e-05 1e-05 1.5e-05
2 1 2.30295e-05 9.74727e-06 1e-05 1e-05 1e-05 1.5e-05
3 2 2.25267e-05 2.98946e-05 1e-05 1e-05 1e-05 1.5e-05
4 2 3.22898e-05 2.07807e-05 1e-05 1e-05 1e-05 1.5e-05
5 2 2.26724e-05 3.99539e-05 1e-05 1e-05 1e-05 1.5e-05
6 1 1.43538e-05 1.96283e-05 1e-05 1e-05 1e-05 1.5e-05
7 2 3.37185e-05 3.34171e-05 1e-05 1e-05 1e-05 1.5e-05
8 2 2.5338e-05 1.10592e-05 1e-05 1e-05 1e-05 1.5e-05
9 1 1.42495e-05 1.98985e-05 1e-05 1e-05 1e-05 1.5e-05
ITEM: TIMESTEP
62
ITEM: NUMBER OF ATOMS
9
ITEM: BOX BOUNDS ff ff ff
0.0000000000000000e+00 5.0000000000000002e-05
0.0000000000000000e+00 5.0000000000000002e-05
0.0000000000000000e+00 2.5000000000000001e-05
ITEM: ATOMS id type x y z shapex shapey shapez
1 1 2.96569e-05 3.12798e-05 1e-05 1e-05 1e-05 1.5e-05
2 1 1.9058e-05 7.83671e-06 1e-05 1e-05 1e-05 1.5e-05
3 2 2.09503e-05 2.93079e-05 1e-05 1e-05 1e-05 1.5e-05
4 2 3.25943e-05 2.23844e-05 1e-05 1e-05 1e-05 1.5e-05
5 2 2.2303e-05 4.02884e-05 1e-05 1e-05 1e-05 1.5e-05
6 1 1.68619e-05 1.71495e-05 1e-05 1e-05 1e-05 1.5e-05
7 2 3.78836e-05 3.44289e-05 1e-05 1e-05 1e-05 1.5e-05
8 2 2.73301e-05 1.35336e-05 1e-05 1e-05 1e-05 1.5e-05
9 1 1.34172e-05 2.13137e-05 1e-05 1e-05 1e-05 1.5e-05
ITEM: TIMESTEP
63
ITEM: NUMBER OF ATOMS
9
ITEM: BOX BOUNDS ff ff ff
0.0000000000000000e+00 5.0000000000000002e-05
0.0000000000000000e+00 5.0000000000000002e-05
0.0000000000000000e+00 2.5000000000000001e-05
ITEM: ATOMS id type x y z shapex shapey shapez
1 1 2.98262e-05 3.21414e-05 1e-05 1e-05 1e-05 1.5e-05
2 1 1.82216e-05 6.20413e-06 1e-05 1e-05 1e-05 1.5e-05
3 2 2.02175e-05 2.93121e-05 1e-05 1e-05 1e-05 1.5e-05
4 2 3.35986e-05 2.28312e-05 1e-05 1e-05 1e-05 1.5e-05
5 2 2.15253e-05 4.03678e-05 1e-05 1e-05 1e-05 1.5e-05
6 1 1.87968e-05 1.61613e-05 1e-05 1e-05 1e-05 1.5e-05
7 2 3.93799e-05 3.41902e-05 1e-05 1e-05 1e-05 1.5e-05
8 2 2.83554e-05 1.29855e-05 1e-05 1e-05 1e-05 1.5e-05
9 1 1.01341e-05 2.33291e-05 1e-05 1e-05 1e-05 1.5e-05
ITEM: TIMESTEP
64
ITEM: NUMBER OF ATOMS
9
ITEM: BOX BOUNDS ff ff ff
0.0000000000000000e+00 5.0000000000000002e-05
0.0000000000000000e+00 5.0000000000000002e-05
0.0000000000000000e+00 2.5000000000000001e-05
ITEM: ATOMS id type x y z shapex shapey shapez
1 1 2.9841e-05 3.24185e-05 1e-05 1e-05 1e-05 1.5e-05
2 1 1.83407e-05 6.16939e-06 1e-05 1e-05 1e-05 1.5e-05
3 2 1.98698e-05 2.95396e-05 1e-05 1e-05 1e-05 1.5e-05
4 2 3.4299e-05 2.2786e-05 1e-05 1e-05 1e-05 1.5e-05
5 2 2.07782e-05 4.03304e-05 1e-05 1e-05 1e-05 1.5e-05
6 1 1.89377e-05 1.61433e-05 1e-05 1e-05 1e-05 1.5e-05
7 2 3.97042e-05 3.35623e-05 1e-05 1e-05 1e-05 1.5e-05
8 2 2.87686e-05 1.26464e-05 1e-05 1e-05 1e-05 1.5e-05
9 1 9.51619e-06 2.3927e-05 1e-05 1e-05 1e-05 1.5e-05
ITEM: TIMESTEP
65
ITEM: NUMBER OF ATOMS
9
ITEM: BOX BOUNDS ff ff ff
0.0000000000000000e+00 5.0000000000000002e-05
0.0000000000000000e+00 5.0000000000000002e-05
0.0000000000000000e+00 2.5000000000000001e-05
ITEM: ATOMS id type x y z shapex shapey shapez
1 1 2.98203e-05 3.24879e-05 1e-05 1e-05 1e-05 1.5e-05
2 1 1.85181e-05 6.22817e-06 1e-05 1e-05 1e-05 1.5e-05
3 2 1.9735e-05 2.97071e-05 1e-05 1e-05 1e-05 1.5e-05
4 2 3.46795e-05 2.26863e-05 1e-05 1e-05 1e-05 1.5e-05
5 2 2.03054e-05 4.0272e-05 1e-05 1e-05 1e-05 1.5e-05
6 1 1.89827e-05 1.62191e-05 1e-05 1e-05 1e-05 1.5e-05
7 2 3.97638e-05 3.31889e-05 1e-05 1e-05 1e-05 1.5e-05
8 2 2.8878e-05 1.24775e-05 1e-05 1e-05 1e-05 1.5e-05
9 1 9.3726e-06 2.42559e-05 1e-05 1e-05 1e-05 1.5e-05
ITEM: TIMESTEP
66
ITEM: NUMBER OF ATOMS
9
ITEM: BOX BOUNDS ff ff ff
0.0000000000000000e+00 5.0000000000000002e-05
0.0000000000000000e+00 5.0000000000000002e-05
0.0000000000000000e+00 2.5000000000000001e-05
ITEM: ATOMS id type x y z shapex shapey shapez
1 1 2.98059e-05 3.25109e-05 1e-05 1e-05 1e-05 1.5e-05
2 1 1.86476e-05 6.29282e-06 1e-05 1e-05 1e-05 1.5e-05
3 2 1.96307e-05 2.97517e-05 1e-05 1e-05 1e-05 1.5e-05
4 2 3.4862e-05 2.26128e-05 1e-05 1e-05 1e-05 1.5e-05