ITEM: TIMESTEP
0
ITEM: NUMBER OF ATOMS
2
ITEM: BOX BOUNDS ff ff ff
0.0000000000000000e+00 5.0000000000000002e-05
0.0000000000000000e+00 5.0000000000000002e-05
0.0000000000000000e+00 3.0000000000000001e-05
ITEM: ATOMS id type x y z shapex shapey shapez
2 3 2.5e-05 1.5e-05 1e-05 1.8e-05 1.8e-05 6e-06
1 3 2.5e-05 1.5e-05 2e-05 1.2e-05 1.2e-05 8e-06
ITEM: TIMESTEP
1
ITEM: NUMBER OF ATOMS
2
ITEM: BOX BOUNDS ff ff ff
0.0000000000000000e+00 5.0000000000000002e-05
0.0000000000000000e+00 5.0000000000000002e-05
0.0000000000000000e+00 3.0000000000000001e-05
ITEM: ATOMS id type x y z shapex shapey shapez
2 3 2.5e-05 1.5e-05 1e-05 1.8e-05 1.8e-05 6e-06
1 3 2.5e-05 1.5e-05 2e-05 1.2e-05 1.2e-05 8e-06
ITEM: TIMESTEP
2
ITEM: NUMBER OF ATOMS
2
ITEM: BOX BOUNDS ff ff ff
0.0000000000000000e+00 5.0000000000000002e-05
0.0000000000000000e+00 5.0000000000000002e-05
0.0000000000000000e+00 3.0000000000000001e-05
ITEM: ATOMS id type x y z shapex shapey shapez
2 3 2.5e-05 1.5e-05 1.00056e-05 1.8e-05 1.8e-05 6e-06
1 3 2.5e-05 1.5e-05 1.99905e-05 1.2e-05 1.2e-05 8e-06
ITEM: TIMESTEP
3
ITEM: NUMBER OF ATOMS
2
ITEM: BOX BOUNDS ff ff ff
0.0000000000000000e+00 5.0000000000000002e-05
0.0000000000000000e+00 5.0000000000000002e-05
0.0000000000000000e+00 3.0000000000000001e-05
ITEM: ATOMS id type x y z shapex shapey shapez
2 3 2.5e-05 1.5e-05 1.00166e-05 1.8e-05 1.8e-05 6e-06
1 3 2.5e-05 1.5e-05 1.99725e-05 1.2e-05 1.2e-05 8e-06
ITEM: TIMESTEP
4
ITEM: NUMBER OF ATOMS
2
ITEM: BOX BOUNDS ff ff ff
0.0000000000000000e+00 5.0000000000000002e-05
0.0000000000000000e+00 5.0000000000000002e-05
0.0000000000000000e+00 3.0000000000000001e-05
ITEM: ATOMS id type x y z shapex shapey shapez
2 3 2.5e-05 1.5e-05 1.00327e-05 1.8e-05 1.8e-05 6e-06
1 3 2.5e-05 1.5e-05 1.99464e-05 1.2e-05 1.2e-05 8e-06
ITEM: TIMESTEP
5
ITEM: NUMBER OF ATOMS
2
ITEM: BOX BOUNDS ff ff ff
0.0000000000000000e+00 5.0000000000000002e-05
0.0000000000000000e+00 5.0000000000000002e-05
0.0000000000000000e+00 3.0000000000000001e-05
ITEM: ATOMS id type x y z shapex shapey shapez
2 3 2.5e-05 1.5e-05 1.00541e-05 1.8e-05 1.8e-05 6e-06
1 3 2.5e-05 1.5e-05 1.99126e-05 1.2e-05 1.2e-05 8e-06
ITEM: TIMESTEP
6
ITEM: NUMBER OF ATOMS
2
ITEM: BOX BOUNDS ff ff ff
0.0000000000000000e+00 5.0000000000000002e-05
0.0000000000000000e+00 5.0000000000000002e-05
0.0000000000000000e+00 3.0000000000000001e-05
ITEM: ATOMS id type x y z shapex shapey shapez
2 3 2.5e-05 1.5e-05 1.00808e-05 1.8e-05 1.8e-05 6e-06
1 3 2.5e-05 1.5e-05 1.98713e-05 1.2e-05 1.2e-05 8e-06
ITEM: TIMESTEP
7
ITEM: NUMBER OF ATOMS
2
ITEM: BOX BOUNDS ff ff ff
0.0000000000000000e+00 5.0000000000000002e-05
0.0000000000000000e+00 5.0000000000000002e-05
0.0000000000000000e+00 3.0000000000000001e-05
ITEM: ATOMS id type x y z shapex shapey shapez
2 3 2.5e-05 1.5e-05 1.01129e-05 1.8e-05 1.8e-05 6e-06
1 3 2.5e-05 1.5e-05 1.98223e-05 1.2e-05 1.2e-05 8e-06
ITEM: TIMESTEP
8
ITEM: NUMBER OF ATOMS
2
ITEM: BOX BOUNDS ff ff ff
0.0000000000000000e+00 5.0000000000000002e-05
0.0000000000000000e+00 5.0000000000000002e-05
0.0000000000000000e+00 3.0000000000000001e-05
ITEM: ATOMS id type x y z shapex shapey shapez
2 3 2.5e-05 1.5e-05 1.0151e-05 1.8e-05 1.8e-05 6e-06
1 3 2.5e-05 1.5e-05 1.97653e-05 1.2e-05 1.2e-05 8e-06
ITEM: TIMESTEP
9
ITEM: NUMBER OF ATOMS
2
ITEM: BOX BOUNDS ff ff ff
0.0000000000000000e+00 5.0000000000000002e-05
0.0000000000000000e+00 5.0000000000000002e-05
0.0000000000000000e+00 3.0000000000000001e-05
ITEM: ATOMS id type x y z shapex shapey shapez
2 3 2.5e-05 1.5e-05 1.01952e-05 1.8e-05 1.8e-05 6e-06
1 3 2.5e-05 1.5e-05 1.96999e-05 1.2e-05 1.2e-05 8e-06
ITEM: TIMESTEP
10
ITEM: NUMBER OF ATOMS
2
ITEM: BOX BOUNDS ff ff ff
0.0000000000000000e+00 5.0000000000000002e-05
0.0000000000000000e+00 5.0000000000000002e-05
0.0000000000000000e+00 3.0000000000000001e-05
ITEM: ATOMS id type x y z shapex shapey shapez
2 3 2.5e-05 1.5e-05 1.02463e-05 1.8e-05 1.8e-05 6e-06
1 3 2.5e-05 1.5e-05 1.96252e-05 1.2e-05 1.2e-05 8e-06
ITEM: TIMESTEP
11
ITEM: NUMBER OF ATOMS
2
ITEM: BOX BOUNDS ff ff ff
0.0000000000000000e+00 5.0000000000000002e-05
0.0000000000000000e+00 5.0000000000000002e-05
0.0000000000000000e+00 3.0000000000000001e-05
ITEM: ATOMS id type x y z shapex shapey shapez
2 3 2.5e-05 1.5e-05 1.0305e-05 1.8e-05 1.8e-05 6e-06
1 3 2.5e-05 1.5e-05 1.95405e-05 1.2e-05 1.2e-05 8e-06
ITEM: TIMESTEP
12
ITEM: NUMBER OF ATOMS
2
ITEM: BOX BOUNDS ff ff ff
0.0000000000000000e+00 5.0000000000000002e-05
0.0000000000000000e+00 5.0000000000000002e-05
0.0000000000000000e+00 3.0000000000000001e-05
ITEM: ATOMS id type x y z shapex shapey shapez
2 3 2.5e-05 1.5e-05 1.03718e-05 1.8e-05 1.8e-05 6e-06
1 3 2.5e-05 1.5e-05 1.94448e-05 1.2e-05 1.2e-05 8e-06
ITEM: TIMESTEP
13
ITEM: NUMBER OF ATOMS
2
ITEM: BOX BOUNDS ff ff ff
0.0000000000000000e+00 5.0000000000000002e-05
0.0000000000000000e+00 5.0000000000000002e-05
0.0000000000000000e+00 3.0000000000000001e-05
ITEM: ATOMS id type x y z shapex shapey shapez
2 3 2.5e-05 1.5e-05 1.04475e-05 1.8e-05 1.8e-05 6e-06
1 3 2.5e-05 1.5e-05 1.93373e-05 1.2e-05 1.2e-05 8e-06
ITEM: TIMESTEP
14
ITEM: NUMBER OF ATOMS
2
ITEM: BOX BOUNDS ff ff ff
0.0000000000000000e+00 5.0000000000000002e-05
0.0000000000000000e+00 5.0000000000000002e-05
0.0000000000000000e+00 3.0000000000000001e-05
ITEM: ATOMS id type x y z shapex shapey shapez
2 3 2.5e-05 1.5e-05 1.05327e-05 1.8e-05 1.8e-05 6e-06
1 3 2.5e-05 1.5e-05 1.92174e-05 1.2e-05 1.2e-05 8e-06
ITEM: TIMESTEP
15
ITEM: NUMBER OF ATOMS
2
ITEM: BOX BOUNDS ff ff ff
0.0000000000000000e+00 5.0000000000000002e-05
0.0000000000000000e+00 5.0000000000000002e-05
0.0000000000000000e+00 3.0000000000000001e-05
ITEM: ATOMS id type x y z shapex shapey shapez
2 3 2.5e-05 1.5e-05 1.06272e-05 1.8e-05 1.8e-05 6e-06
1 3 2.5e-05 1.5e-05 1.90856e-05 1.2e-05 1.2e-05 8e-06
ITEM: TIMESTEP
16
ITEM: NUMBER OF ATOMS
2
ITEM: BOX BOUNDS ff ff ff
0.0000000000000000e+00 5.0000000000000002e-05
0.0000000000000000e+00 5.0000000000000002e-05
0.0000000000000000e+00 3.0000000000000001e-05
ITEM: ATOMS id type x y z shapex shapey shapez
2 3 2.5e-05 1.5e-05 1.07302e-05 1.8e-05 1.8e-05 6e-06
1 3 2.5e-05 1.5e-05 1.89434e-05 1.2e-05 1.2e-05 8e-06
ITEM: TIMESTEP
17
ITEM: NUMBER OF ATOMS
2
ITEM: BOX BOUNDS ff ff ff
0.0000000000000000e+00 5.0000000000000002e-05
0.0000000000000000e+00 5.0000000000000002e-05
0.0000000000000000e+00 3.0000000000000001e-05
ITEM: ATOMS id type x y z shapex shapey shapez
2 3 2.5e-05 1.5e-05 1.08398e-05 1.8e-05 1.8e-05 6e-06
1 3 2.5e-05 1.5e-05 1.87945e-05 1.2e-05 1.2e-05 8e-06
ITEM: TIMESTEP
18
ITEM: NUMBER OF ATOMS
2
ITEM: BOX BOUNDS ff ff ff
0.0000000000000000e+00 5.0000000000000002e-05
0.0000000000000000e+00 5.0000000000000002e-05
0.0000000000000000e+00 3.0000000000000001e-05
ITEM: ATOMS id type x y z shapex shapey shapez
2 3 2.5e-05 1.5e-05 1.09528e-05 1.8e-05 1.8e-05 6e-06
1 3 2.5e-05 1.5e-05 1.86443e-05 1.2e-05 1.2e-05 8e-06
ITEM: TIMESTEP
19
ITEM: NUMBER OF ATOMS
2
ITEM: BOX BOUNDS ff ff ff
0.0000000000000000e+00 5.0000000000000002e-05
0.0000000000000000e+00 5.0000000000000002e-05
0.0000000000000000e+00 3.0000000000000001e-05
ITEM: ATOMS id type x y z shapex shapey shapez
2 3 2.5e-05 1.5e-05 1.10652e-05 1.8e-05 1.8e-05 6e-06
1 3 2.5e-05 1.5e-05 1.84992e-05 1.2e-05 1.2e-05 8e-06
ITEM: TIMESTEP
20
ITEM: NUMBER OF ATOMS
2
ITEM: BOX BOUNDS ff ff ff
0.0000000000000000e+00 5.0000000000000002e-05
0.0000000000000000e+00 5.0000000000000002e-05
0.0000000000000000e+00 3.0000000000000001e-05
ITEM: ATOMS id type x y z shapex shapey shapez
2 3 2.5e-05 1.5e-05 1.11734e-05 1.8e-05 1.8e-05 6e-06
1 3 2.5e-05 1.5e-05 1.83647e-05 1.2e-05 1.2e-05 8e-06
ITEM: TIMESTEP
21
ITEM: NUMBER OF ATOMS
2
ITEM: BOX BOUNDS ff ff ff
0.0000000000000000e+00 5.0000000000000002e-05
0.0000000000000000e+00 5.0000000000000002e-05
0.0000000000000000e+00 3.0000000000000001e-05
ITEM: ATOMS id type x y z shapex shapey shapez
2 3 2.5e-05 1.5e-05 1.12752e-05 1.8e-05 1.8e-05 6e-06
1 3 2.5e-05 1.5e-05 1.82439e-05 1.2e-05 1.2e-05 8e-06
ITEM: TIMESTEP
22
ITEM: NUMBER OF ATOMS
2
ITEM: BOX BOUNDS ff ff ff
0.0000000000000000e+00 5.0000000000000002e-05
0.0000000000000000e+00 5.0000000000000002e-05
0.0000000000000000e+00 3.0000000000000001e-05
ITEM: ATOMS id type x y z shapex shapey shapez
2 3 2.5e-05 1.5e-05 1.13703e-05 1.8e-05 1.8e-05 6e-06
1 3 2.5e-05 1.5e-05 1.81366e-05 1.2e-05 1.2e-05 8e-06
ITEM: TIMESTEP
23
ITEM: NUMBER OF ATOMS
2
ITEM: BOX BOUNDS ff ff ff
0.0000000000000000e+00 5.0000000000000002e-05
0.0000000000000000e+00 5.0000000000000002e-05
0.0000000000000000e+00 3.0000000000000001e-05
ITEM: ATOMS id type x y z shapex shapey shapez
2 3 2.5e-05 1.5e-05 1.14589e-05 1.8e-05 1.8e-05 6e-06
1 3 2.5e-05 1.5e-05 1.80416e-05 1.2e-05 1.2e-05 8e-06
ITEM: TIMESTEP
24
ITEM: NUMBER OF ATOMS
2
ITEM: BOX BOUNDS ff ff ff
0.0000000000000000e+00 5.0000000000000002e-05
0.0000000000000000e+00 5.0000000000000002e-05
0.0000000000000000e+00 3.0000000000000001e-05
ITEM: ATOMS id type x y z shapex shapey shapez
2 3 2.5e-05 1.5e-05 1.15412e-05 1.8e-05 1.8e-05 6e-06
1 3 2.5e-05 1.5e-05 1.79579e-05 1.2e-05 1.2e-05 8e-06
ITEM: TIMESTEP
25
ITEM: NUMBER OF ATOMS
2
ITEM: BOX BOUNDS ff ff ff
0.0000000000000000e+00 5.0000000000000002e-05
0.0000000000000000e+00 5.0000000000000002e-05
0.0000000000000000e+00 3.0000000000000001e-05
ITEM: ATOMS id type x y z shapex shapey shapez
2 3 2.5e-05 1.5e-05 1.16174e-05 1.8e-05 1.8e-05 6e-06
1 3 2.5e-05 1.5e-05 1.78848e-05 1.2e-05 1.2e-05 8e-06
ITEM: TIMESTEP
26
ITEM: NUMBER OF ATOMS
2
ITEM: BOX BOUNDS ff ff ff
0.0000000000000000e+00 5.0000000000000002e-05
0.0000000000000000e+00 5.0000000000000002e-05
0.0000000000000000e+00 3.0000000000000001e-05
ITEM: ATOMS id type x y z shapex shapey shapez
2 3 2.5e-05 1.5e-05 1.16877e-05 1.8e-05 1.8e-05 6e-06
1 3 2.5e-05 1.5e-05 1.78211e-05 1.2e-05 1.2e-05 8e-06
ITEM: TIMESTEP
27
ITEM: NUMBER OF ATOMS
2
ITEM: BOX BOUNDS ff ff ff
0.0000000000000000e+00 5.0000000000000002e-05
0.0000000000000000e+00 5.0000000000000002e-05
0.0000000000000000e+00 3.0000000000000001e-05
ITEM: ATOMS id type x y z shapex shapey shapez
2 3 2.5e-05 1.5e-05 1.17524e-05 1.8e-05 1.8e-05 6e-06
1 3 2.5e-05 1.5e-05 1.77662e-05 1.2e-05 1.2e-05 8e-06
ITEM: TIMESTEP
28
ITEM: NUMBER OF ATOMS
2
ITEM: BOX BOUNDS ff ff ff
0.0000000000000000e+00 5.0000000000000002e-05
0.0000000000000000e+00 5.0000000000000002e-05
0.0000000000000000e+00 3.0000000000000001e-05
ITEM: ATOMS id type x y z shapex shapey shapez
2 3 2.5e-05 1.5e-05 1.18118e-05 1.8e-05 1.8e-05 6e-06
1 3 2.5e-05 1.5e-05 1.77193e-05 1.2e-05 1.2e-05 8e-06
ITEM: TIMESTEP
29
ITEM: NUMBER OF ATOMS
2
ITEM: BOX BOUNDS ff ff ff
0.0000000000000000e+00 5.0000000000000002e-05
0.0000000000000000e+00 5.0000000000000002e-05
0.0000000000000000e+00 3.0000000000000001e-05
ITEM: ATOMS id type x y z shapex shapey shapez
2 3 2.5e-05 1.5e-05 1.1866e-05 1.8e-05 1.8e-05 6e-06
1 3 2.5e-05 1.5e-05 1.76795e-05 1.2e-05 1.2e-05 8e-06
ITEM: TIMESTEP
30
ITEM: NUMBER OF ATOMS
2
ITEM: BOX BOUNDS ff ff ff
0.0000000000000000e+00 5.0000000000000002e-05
0.0000000000000000e+00 5.0000000000000002e-05
0.0000000000000000e+00 3.0000000000000001e-05
ITEM: ATOMS id type x y z shapex shapey shapez
2 3 2.5e-05 1.5e-05 1.19154e-05 1.8e-05 1.8e-05 6e-06
1 3 2.5e-05 1.5e-05 1.76464e-05 1.2e-05 1.2e-05 8e-06
ITEM: TIMESTEP
31
ITEM: NUMBER OF ATOMS
2
ITEM: BOX BOUNDS ff ff ff
0.0000000000000000e+00 5.0000000000000002e-05
0.0000000000000000e+00 5.0000000000000002e-05
0.0000000000000000e+00 3.0000000000000001e-05
ITEM: ATOMS id type x y z shapex shapey shapez
2 3 2.5e-05 1.5e-05 1.19602e-05 1.8e-05 1.8e-05 6e-06
1 3 2.5e-05 1.5e-05 1.76193e-05 1.2e-05 1.2e-05 8e-06
ITEM: TIMESTEP
32
ITEM: NUMBER OF ATOMS
2
ITEM: BOX BOUNDS ff ff ff
0.0000000000000000e+00 5.0000000000000002e-05
0.0000000000000000e+00 5.0000000000000002e-05
0.0000000000000000e+00 3.0000000000000001e-05
ITEM: ATOMS id type x y z shapex shapey shapez
2 3 2.5e-05 1.5e-05 1.20006e-05 1.8e-05 1.8e-05 6e-06
1 3 2.5e-05 1.5e-05 1.75975e-05 1.2e-05 1.2e-05 8e-06
ITEM: TIMESTEP
33
ITEM: NUMBER OF ATOMS
2
ITEM: BOX BOUNDS ff ff ff
0.0000000000000000e+00 5.0000000000000002e-05
0.0000000000000000e+00 5.0000000000000002e-05
0.0000000000000000e+00 3.0000000000000001e-05
ITEM: ATOMS id type x y z shapex shapey shapez
2 3 2.5e-05 1.5e-05 1.20369e-05 1.8e-05 1.8e-05 6e-06
1 3 2.5e-05 1.5e-05 1.75807e-05 1.2e-05 1.2e-05 8e-06
ITEM: TIMESTEP
34
ITEM: NUMBER OF ATOMS
2
ITEM: BOX BOUNDS ff ff ff
0.0000000000000000e+00 5.0000000000000002e-05
0.0000000000000000e+00 5.0000000000000002e-05
0.0000000000000000e+00 3.0000000000000001e-05
ITEM: ATOMS id type x y z shapex shapey shapez
2 3 2.5e-05 1.5e-05 1.20693e-05 1.8e-05 1.8e-05 6e-06
1 3 2.5e-05 1.5e-05 1.75683e-05 1.2e-05 1.2e-05 8e-06
ITEM: TIMESTEP
35
ITEM: NUMBER OF ATOMS
2
ITEM: BOX BOUNDS ff ff ff
0.0000000000000000e+00 5.0000000000000002e-05
0.0000000000000000e+00 5.0000000000000002e-05
0.0000000000000000e+00 3.0000000000000001e-05
ITEM: ATOMS id type x y z shapex shapey shapez
2 3 2.5e-05 1.5e-05 1.2098e-05 1.8e-05 1.8e-05 6e-06
1 3 2.5e-05 1.5e-05 1.75599e-05 1.2e-05 1.2e-05 8e-06
ITEM: TIMESTEP
36
ITEM: NUMBER OF ATOMS
2
ITEM: BOX BOUNDS ff ff ff
0.0000000000000000e+00 5.0000000000000002e-05
0.0000000000000000e+00 5.0000000000000002e-05
0.0000000000000000e+00 3.0000000000000001e-05
ITEM: ATOMS id type x y z shapex shapey shapez
2 3 2.5e-05 1.5e-05 1.21233e-05 1.8e-05 1.8e-05 6e-06
1 3 2.5e-05 1.5e-05 1.75551e-05 1.2e-05 1.2e-05 8e-06
ITEM: TIMESTEP
37
ITEM: NUMBER OF ATOMS
2
ITEM: BOX BOUNDS ff ff ff
0.0000000000000000e+00 5.0000000000000002e-05
0.0000000000000000e+00 5.0000000000000002e-05
0.0000000000000000e+00 3.0000000000000001e-05
ITEM: ATOMS id type x y z shapex shapey shapez
2 3 2.5e-05 1.5e-05 1.21453e-05 1.8e-05 1.8e-05 6e-06
1 3 2.5e-05 1.5e-05 1.75535e-05 1.2e-05 1.2e-05 8e-06
ITEM: TIMESTEP
38
ITEM: NUMBER OF ATOMS
2
ITEM: BOX BOUNDS ff ff ff
0.0000000000000000e+00 5.0000000000000002e-05
0.0000000000000000e+00 5.0000000000000002e-05
0.0000000000000000e+00 3.0000000000000001e-05
ITEM: ATOMS id type x y z shapex shapey shapez
2 3 2.5e-05 1.5e-05 1.21642e-05 1.8e-05 1.8e-05 6e-06
1 3 2.5e-05 1.5e-05 1.75549e-05 1.2e-05 1.2e-05 8e-06
ITEM: TIMESTEP
39
ITEM: NUMBER OF ATOMS
2
ITEM: BOX BOUNDS ff ff ff
0.0000000000000000e+00 5.0000000000000002e-05
0.0000000000000000e+00 5.0000000000000002e-05
0.0000000000000000e+00 3.0000000000000001e-05
ITEM: ATOMS id type x y z shapex shapey shapez
2 3 2.5e-05 1.5e-05 1.21802e-05 1.8e-05 1.8e-05 6e-06
1 3 2.5e-05 1.5e-05 1.75588e-05 1.2e-05 1.2e-05 8e-06
ITEM: TIMESTEP
40
ITEM: NUMBER OF ATOMS
2
ITEM: BOX BOUNDS ff ff ff
0.0000000000000000e+00 5.0000000000000002e-05
0.0000000000000000e+00 5.0000000000000002e-05
0.0000000000000000e+00 3.0000000000000001e-05
ITEM: ATOMS id type x y z shapex shapey shapez
2 3 2.5e-05 1.5e-05 1.21936e-05 1.8e-05 1.8e-05 6e-06
1 3 2.5e-05 1.5e-05 1.75651e-05 1.2e-05 1.2e-05 8e-06
ITEM: TIMESTEP
41
ITEM: NUMBER OF ATOMS
2
ITEM: BOX BOUNDS ff ff ff
0.0000000000000000e+00 5.0000000000000002e-05
0.0000000000000000e+00 5.0000000000000002e-05
0.0000000000000000e+00 3.0000000000000001e-05
ITEM: ATOMS id type x y z shapex shapey shapez
2 3 2.5e-05 1.5e-05 1.22044e-05 1.8e-05 1.8e-05 6e-06
1 3 2.5e-05 1.5e-05 1.75735e-05 1.2e-05 1.2e-05 8e-06
ITEM: TIMESTEP
42
ITEM: NUMBER OF ATOMS
2
ITEM: BOX BOUNDS ff ff ff
0.0000000000000000e+00 5.0000000000000002e-05
0.0000000000000000e+00 5.0000000000000002e-05
0.0000000000000000e+00 3.0000000000000001e-05
ITEM: ATOMS id type x y z shapex shapey shapez
2 3 2.5e-05 1.5e-05 1.22129e-05 1.8e-05 1.8e-05 6e-06
1 3 2.5e-05 1.5e-05 1.75838e-05 1.2e-05 1.2e-05 8e-06
ITEM: TIMESTEP
43
ITEM: NUMBER OF ATOMS
2
ITEM: BOX BOUNDS ff ff ff
0.0000000000000000e+00 5.0000000000000002e-05
0.0000000000000000e+00 5.0000000000000002e-05
0.0000000000000000e+00 3.0000000000000001e-05
ITEM: ATOMS id type x y z shapex shapey shapez
2 3 2.5e-05 1.5e-05 1.22192e-05 1.8e-05 1.8e-05 6e-06
1 3 2.5e-05 1.5e-05 1.75957e-05 1.2e-05 1.2e-05 8e-06
ITEM: TIMESTEP
44
ITEM: NUMBER OF ATOMS
2
ITEM: BOX BOUNDS ff ff ff
0.0000000000000000e+00 5.0000000000000002e-05
0.0000000000000000e+00 5.0000000000000002e-05
0.0000000000000000e+00 3.0000000000000001e-05
ITEM: ATOMS id type x y z shapex shapey shapez
2 3 2.5e-05 1.5e-05 1.22234e-05 1.8e-05 1.8e-05 6e-06
1 3 2.5e-05 1.5e-05 1.76091e-05 1.2e-05 1.2e-05 8e-06
ITEM: TIMESTEP
45
ITEM: NUMBER OF ATOMS
2
ITEM: BOX BOUNDS ff ff ff
0.0000000000000000e+00 5.0000000000000002e-05
0.0000000000000000e+00 5.0000000000000002e-05
0.0000000000000000e+00 3.0000000000000001e-05
ITEM: ATOMS id type x y z shapex shapey shapez
2 3 2.5e-05 1.5e-05 1.22257e-05 1.8e-05 1.8e-05 6e-06
1 3 2.5e-05 1.5e-05 1.76237e-05 1.2e-05 1.2e-05 8e-06
ITEM: TIMESTEP
46
ITEM: NUMBER OF ATOMS
2
ITEM: BOX BOUNDS ff ff ff
0.0000000000000000e+00 5.0000000000000002e-05
0.0000000000000000e+00 5.0000000000000002e-05
0.0000000000000000e+00 3.0000000000000001e-05
ITEM: ATOMS id type x y z shapex shapey shapez
2 3 2.5e-05 1.5e-05 1.22262e-05 1.8e-05 1.8e-05 6e-06
1 3 2.5e-05 1.5e-05 1.76395e-05 1.2e-05 1.2e-05 8e-06
ITEM: TIMESTEP
47
ITEM: NUMBER OF ATOMS
2
ITEM: BOX BOUNDS ff ff ff
0.0000000000000000e+00 5.0000000000000002e-05
0.0000000000000000e+00 5.0000000000000002e-05
0.0000000000000000e+00 3.0000000000000001e-05
ITEM: ATOMS id type x y z shapex shapey shapez
2 3 2.5e-05 1.5e-05 1.2225e-05 1.8e-05 1.8e-05 6e-06
1 3 2.5e-05 1.5e-05 1.76563e-05 1.2e-05 1.2e-05 8e-06
ITEM: TIMESTEP
48
ITEM: NUMBER OF ATOMS
2
ITEM: BOX BOUNDS ff ff ff
0.0000000000000000e+00 5.0000000000000002e-05
0.0000000000000000e+00 5.0000000000000002e-05
0.0000000000000000e+00 3.0000000000000001e-05
ITEM: ATOMS id type x y z shapex shapey shapez
2 3 2.5e-05 1.5e-05 1.22223e-05 1.8e-05 1.8e-05 6e-06
1 3 2.5e-05 1.5e-05 1.76739e-05 1.2e-05 1.2e-05 8e-06
ITEM: TIMESTEP
49
ITEM: NUMBER OF ATOMS
2
ITEM: BOX BOUNDS ff ff ff
0.0000000000000000e+00 5.0000000000000002e-05
0.0000000000000000e+00 5.0000000000000002e-05
0.0000000000000000e+00 3.0000000000000001e-05
ITEM: ATOMS id type x y z shapex shapey shapez
2 3 2.5e-05 1.5e-05 1.22183e-05 1.8e-05 1.8e-05 6e-06
1 3 2.5e-05 1.5e-05 1.76923e-05 1.2e-05 1.2e-05 8e-06
ITEM: TIMESTEP
50
ITEM: NUMBER OF ATOMS
2
ITEM: BOX BOUNDS ff ff ff
0.0000000000000000e+00 5.0000000000000002e-05
0.0000000000000000e+00 5.0000000000000002e-05
0.0000000000000000e+00 3.0000000000000001e-05
ITEM: ATOMS id type x y z shapex shapey shapez
2 3 2.5e-05 1.5e-05 1.22129e-05 1.8e-05 1.8e-05 6e-06
1 3 2.5e-05 1.5e-05 1.77113e-05 1.2e-05 1.2e-05 8e-06
ITEM: TIMESTEP
51
ITEM: NUMBER OF ATOMS
2
ITEM: BOX BOUNDS ff ff ff
0.0000000000000000e+00 5.0000000000000002e-05
0.0000000000000000e+00 5.0000000000000002e-05
0.0000000000000000e+00 3.0000000000000001e-05
ITEM: ATOMS id type x y z shapex shapey shapez
2 3 2.5e-05 1.5e-05 1.22062e-05 1.8e-05 1.8e-05 6e-06
1 3 2.5e-05 1.5e-05 1.77308e-05 1.2e-05 1.2e-05 8e-06
ITEM: TIMESTEP
52
ITEM: NUMBER OF ATOMS
2
ITEM: BOX BOUNDS ff ff ff
0.0000000000000000e+00 5.0000000000000002e-05
0.0000000000000000e+00 5.0000000000000002e-05
0.0000000000000000e+00 3.0000000000000001e-05
ITEM: ATOMS id type x y z shapex shapey shapez
2 3 2.5e-05 1.5e-05 1.21985e-05 1.8e-05 1.8e-05 6e-06
1 3 2.5e-05 1.5e-05 1.77508e-05 1.2e-05 1.2e-05 8e-06
ITEM: TIMESTEP
53
ITEM: NUMBER OF ATOMS
2
ITEM: BOX BOUNDS ff ff ff
0.0000000000000000e+00 5.0000000000000002e-05
0.0000000000000000e+00 5.0000000000000002e-05
0.0000000000000000e+00 3.0000000000000001e-05
ITEM: ATOMS id type x y z shapex shapey shapez
2 3 2.5e-05 1.5e-05 1.21898e-05 1.8e-05 1.8e-05 6e-06
1 3 2.5e-05 1.5e-05 1.77711e-05 1.2e-05 1.2e-05 8e-06
ITEM: TIMESTEP
54
ITEM: NUMBER OF ATOMS
2
ITEM: BOX BOUNDS ff ff ff
0.0000000000000000e+00 5.0000000000000002e-05
0.0000000000000000e+00 5.0000000000000002e-05
0.0000000000000000e+00 3.0000000000000001e-05
ITEM: ATOMS id type x y z shapex shapey shapez
2 3 2.5e-05 1.5e-05 1.21802e-05 1.8e-05 1.8e-05 6e-06
1 3 2.5e-05 1.5e-05 1.77917e-05 1.2e-05 1.2e-05 8e-06
ITEM: TIMESTEP
55
ITEM: NUMBER OF ATOMS
2
ITEM: BOX BOUNDS ff ff ff
0.0000000000000000e+00 5.0000000000000002e-05
0.0000000000000000e+00 5.0000000000000002e-05
0.0000000000000000e+00 3.0000000000000001e-05
ITEM: ATOMS id type x y z shapex shapey shapez
2 3 2.5e-05 1.5e-05 1.21697e-05 1.8e-05 1.8e-05 6e-06
1 3 2.5e-05 1.5e-05 1.78125e-05 1.2e-05 1.2e-05 8e-06
ITEM: TIMESTEP
56
ITEM: NUMBER OF ATOMS
2
ITEM: BOX BOUNDS ff ff ff
0.0000000000000000e+00 5.0000000000000002e-05
0.0000000000000000e+00 5.0000000000000002e-05
0.0000000000000000e+00 3.0000000000000001e-05
ITEM: ATOMS id type x y z shapex shapey shapez
2 3 2.5e-05 1.5e-05 1.21585e-05 1.8e-05 1.8e-05 6e-06
1 3 2.5e-05 1.5e-05 1.78334e-05 1.2e-05 1.2e-05 8e-06
ITEM: TIMESTEP
57
ITEM: NUMBER OF ATOMS
2
ITEM: BOX BOUNDS ff ff ff
0.0000000000000000e+00 5.0000000000000002e-05
0.0000000000000000e+00 5.0000000000000002e-05
0.0000000000000000e+00 3.0000000000000001e-05
ITEM: ATOMS id type x y z shapex shapey shapez
2 3 2.5e-05 1.5e-05 1.21465e-05 1.8e-05 1.8e-05 6e-06
1 3 2.5e-05 1.5e-05 1.78544e-05 1.2e-05 1.2e-05 8e-06
ITEM: TIMESTEP
58
ITEM: NUMBER OF ATOMS
2
ITEM: BOX BOUNDS ff ff ff
0.0000000000000000e+00 5.0000000000000002e-05
0.0000000000000000e+00 5.0000000000000002e-05
0.0000000000000000e+00 3.0000000000000001e-05
ITEM: ATOMS id type x y z shapex shapey shapez
2 3 2.5e-05 1.5e-05 1.2134e-05 1.8e-05 1.8e-05 6e-06
1 3 2.5e-05 1.5e-05 1.78755e-05 1.2e-05 1.2e-05 8e-06
ITEM: TIMESTEP
59
ITEM: NUMBER OF ATOMS
2
ITEM: BOX BOUNDS ff ff ff
0.0000000000000000e+00 5.0000000000000002e-05
0.0000000000000000e+00 5.0000000000000002e-05
0.0000000000000000e+00 3.0000000000000001e-05
ITEM: ATOMS id type x y z shapex shapey shapez
2 3 2.5e-05 1.5e-05 1.21209e-05 1.8e-05 1.8e-05 6e-06
1 3 2.5e-05 1.5e-05 1.78965e-05 1.2e-05 1.2e-05 8e-06
ITEM: TIMESTEP
60
ITEM: NUMBER OF ATOMS
2
ITEM: BOX BOUNDS ff ff ff
0.0000000000000000e+00 5.0000000000000002e-05
0.0000000000000000e+00 5.0000000000000002e-05
0.0000000000000000e+00 3.0000000000000001e-05
ITEM: ATOMS id type x y z shapex shapey shapez
2 3 2.5e-05 1.5e-05 1.21074e-05 1.8e-05 1.8e-05 6e-06
1 3 2.5e-05 1.5e-05 1.79174e-05 1.2e-05 1.2e-05 8e-06
ITEM: TIMESTEP
61
ITEM: NUMBER OF ATOMS
2
ITEM: BOX BOUNDS ff ff ff
0.0000000000000000e+00 5.0000000000000002e-05
0.0000000000000000e+00 5.0000000000000002e-05
0.0000000000000000e+00 3.0000000000000001e-05
ITEM: ATOMS id type x y z shapex shapey shapez
2 3 2.5e-05 1.5e-05 1.20934e-05 1.8e-05 1.8e-05 6e-06
1 3 2.5e-05 1.5e-05 1.79383e-05 1.2e-05 1.2e-05 8e-06
ITEM: TIMESTEP
62
ITEM: NUMBER OF ATOMS
2
ITEM: BOX BOUNDS ff ff ff
0.0000000000000000e+00 5.0000000000000002e-05
0.0000000000000000e+00 5.0000000000000002e-05
0.0000000000000000e+00 3.0000000000000001e-05
ITEM: ATOMS id type x y z shapex shapey shapez
2 3 2.5e-05 1.5e-05 1.20791e-05 1.8e-05 1.8e-05 6e-06
1 3 2.5e-05 1.5e-05 1.79589e-05 1.2e-05 1.2e-05 8e-06
ITEM: TIMESTEP
63
ITEM: NUMBER OF ATOMS
2
ITEM: BOX BOUNDS ff ff ff
0.0000000000000000e+00 5.0000000000000002e-05
0.0000000000000000e+00 5.0000000000000002e-05
0.0000000000000000e+00 3.0000000000000001e-05
ITEM: ATOMS id type x y z shapex shapey shapez
2 3 2.5e-05 1.5e-05 1.20645e-05 1.8e-05 1.8e-05 6e-06
1 3 2.5e-05 1.5e-05 1.79794e-05 1.2e-05 1.2e-05 8e-06
ITEM: TIMESTEP
64
ITEM: NUMBER OF ATOMS
2
ITEM: BOX BOUNDS ff ff ff
0.0000000000000000e+00 5.0000000000000002e-05
0.0000000000000000e+00 5.0000000000000002e-05
0.0000000000000000e+00 3.0000000000000001e-05
ITEM: ATOMS id type x y z shapex shapey shapez
2 3 2.5e-05 1.5e-05 1.20496e-05 1.8e-05 1.8e-05 6e-06
1 3 2.5e-05 1.5e-05 1.79997e-05 1.2e-05 1.2e-05 8e-06
ITEM: TIMESTEP
65
ITEM: NUMBER OF ATOMS
2
ITEM: BOX BOUNDS ff ff ff
0.0000000000000000e+00 5.0000000000000002e-05
0.0000000000000000e+00 5.0000000000000002e-05
0.0000000000000000e+00 3.0000000000000001e-05
ITEM: ATOMS id type x y z shapex shapey shapez
2 3 2.5e-05 1.5e-05 1.20345e-05 1.8e-05 1.8e-05 6e-06
1 3 2.5e-05 1.5e-05 1.80197e-05 1.2e-05 1.2e-05 8e-06
ITEM: TIMESTEP
66
ITEM: NUMBER OF ATOMS
2
ITEM: BOX BOUNDS ff ff ff
0.0000000000000000e+00 5.0000000000000002e-05
0.0000000000000000e+00 5.0000000000000002e-05
0.0000000000000000e+00 3.0000000000000001e-05
ITEM: ATOMS id type x y z shapex shapey shapez
2 3 2.5e-05 1.5e-05 1.20192e-05 1.8e-05 1.8e-05 6e-06
1 3 2.5e-05 1.5e-05 1.80394e-05 1.2e-05 1.2e-05 8e-06
ITEM: TIMESTEP
67
ITEM: NUMBER OF ATOMS
2
ITEM: BOX BOUNDS ff ff ff
0.0000000000000000e+00 5.0000000000000002e-05
0.0000000000000000e+00 5.0000000000000002e-05
0.0000000000000000e+00 3.0000000000000001e-05
ITEM: ATOMS id type x y z shapex shapey shapez
2 3 2.5e-05 1.5e-05 1.20039e-05 1.8e-05 1.8e-05 6e-06
1 3 2.5e-05 1.5e-05 1.80589e-05 1.2e-05 1.2e-05 8e-06
ITEM: TIMESTEP
68
ITEM: NUMBER OF ATOMS
2
ITEM: BOX BOUNDS ff ff ff
0.0000000000000000e+00 5.0000000000000002e-05
0.0000000000000000e+00 5.0000000000000002e-05
0.0000000000000000e+00 3.0000000000000001e-05
ITEM: ATOMS id type x y z shapex shapey shapez
2 3 2.5e-05 1.5e-05 1.19884e-05 1.8e-05 1.8e-05 6e-06
1 3 2.5e-05 1.5e-05 1.8078e-05 1.2e-05 1.2e-05 8e-06
ITEM: TIMESTEP
69
ITEM: NUMBER OF ATOMS
2
ITEM: BOX BOUNDS ff ff ff
0.0000000000000000e+00 5.0000000000000002e-05
0.0000000000000000e+00 5.0000000000000002e-05
0.0000000000000000e+00 3.0000000000000001e-05
ITEM: ATOMS id type x y z shapex shapey shapez
2 3 2.5e-05 1.5e-05 1.1973e-05 1.8e-05 1.8e-05 6e-06
1 3 2.5e-05 1.5e-05 1.80967e-05 1.2e-05 1.2e-05 8e-06
ITEM: TIMESTEP
70
ITEM: NUMBER OF ATOMS
2
ITEM: BOX BOUNDS ff ff ff
0.0000000000000000e+00 5.0000000000000002e-05
0.0000000000000000e+00 5.0000000000000002e-05
0.0000000000000000e+00 3.0000000000000001e-05
ITEM: ATOMS id type x y z shapex shapey shapez
2 3 2.5e-05 1.5e-05 1.19575e-05 1.8e-05 1.8e-05 6e-06
1 3 2.5e-05 1.5e-05 1.81151e-05 1.2e-05 1.2e-05 8e-06
ITEM: TIMESTEP
71
ITEM: NUMBER OF ATOMS
2
ITEM: BOX BOUNDS ff ff ff
0.0000000000000000e+00 5.0000000000000002e-05
0.0000000000000000e+00 5.0000000000000002e-05
0.0000000000000000e+00 3.0000000000000001e-05
ITEM: ATOMS id type x y z shapex shapey shapez
2 3 2.5e-05 1.5e-05 1.19421e-05 1.8e-05 1.8e-05 6e-06
1 3 2.5e-05 1.5e-05 1.81331e-05 1.2e-05 1.2e-05 8e-06
ITEM: TIMESTEP
72
ITEM: NUMBER OF ATOMS
2
ITEM: BOX BOUNDS ff ff ff
0.0000000000000000e+00 5.0000000000000002e-05
0.0000000000000000e+00 5.0000000000000002e-05
0.0000000000000000e+00 3.0000000000000001e-05
ITEM: ATOMS id type x y z shapex shapey shapez
2 3 2.5e-05 1.5e-05 1.19267e-05 1.8e-05 1.8e-05 6e-06
1 3 2.5e-05 1.5e-05 1.81508e-05 1.2e-05 1.2e-05 8e-06
ITEM: TIMESTEP
73
ITEM: NUMBER OF ATOMS
2
ITEM: BOX BOUNDS ff ff ff
0.0000000000000000e+00 5.0000000000000002e-05
0.0000000000000000e+00 5.0000000000000002e-05
0.0000000000000000e+00 3.0000000000000001e-05
ITEM: ATOMS id type x y z shapex shapey shapez
2 3 2.5e-05 1.5e-05 1.19114e-05 1.8e-05 1.8e-05 6e-06
1 3 2.5e-05 1.5e-05 1.8168e-05 1.2e-05 1.2e-05 8e-06
ITEM: TIMESTEP
74
ITEM: NUMBER OF ATOMS
2
ITEM: BOX BOUNDS ff ff ff
0.0000000000000000e+00 5.0000000000000002e-05
0.0000000000000000e+00 5.0000000000000002e-05
0.0000000000000000e+00 3.0000000000000001e-05
ITEM: ATOMS id type x y z shapex shapey shapez
2 3 2.5e-05 1.5e-05 1.18963e-05 1.8e-05 1.8e-05 6e-06
1 3 2.5e-05 1.5e-05 1.81847e-05 1.2e-05 1.2e-05 8e-06
ITEM: TIMESTEP
75
ITEM: NUMBER OF ATOMS
2
ITEM: BOX BOUNDS ff ff ff
0.0000000000000000e+00 5.0000000000000002e-05
0.0000000000000000e+00 5.0000000000000002e-05
0.0000000000000000e+00 3.0000000000000001e-05
ITEM: ATOMS id type x y z shapex shapey shapez
2 3 2.5e-05 1.5e-05 1.18813e-05 1.8e-05 1.8e-05 6e-06
1 3 2.5e-05 1.5e-05 1.82011e-05 1.2e-05 1.2e-05 8e-06
ITEM: TIMESTEP
76
ITEM: NUMBER OF ATOMS
2
ITEM: BOX BOUNDS ff ff ff
0.0000000000000000e+00 5.0000000000000002e-05
0.0000000000000000e+00 5.0000000000000002e-05
0.0000000000000000e+00 3.0000000000000001e-05
ITEM: ATOMS id type x y z shapex shapey shapez
2 3 2.5e-05 1.5e-05 1.18665e-05 1.8e-05 1.8e-05 6e-06
1 3 2.5e-05 1.5e-05 1.8217e-05 1.2e-05 1.2e-05 8e-06
ITEM: TIMESTEP
77
ITEM: NUMBER OF ATOMS
2
ITEM: BOX BOUNDS ff ff ff
0.0000000000000000e+00 5.0000000000000002e-05
0.0000000000000000e+00 5.0000000000000002e-05
0.0000000000000000e+00 3.0000000000000001e-05
ITEM: ATOMS id type x y z shapex shapey shapez
2 3 2.5e-05 1.5e-05 1.18518e-05 1.8e-05 1.8e-05 6e-06
1 3 2.5e-05 1.5e-05 1.82325e-05 1.2e-05 1.2e-05 8e-06
ITEM: TIMESTEP
78
ITEM: NUMBER OF ATOMS
2
ITEM: BOX BOUNDS ff ff ff
0.0000000000000000e+00 5.0000000000000002e-05
0.0000000000000000e+00 5.0000000000000002e-05
0.0000000000000000e+00 3.0000000000000001e-05
ITEM: ATOMS id type x y z shapex shapey shapez
2 3 2.5e-05 1.5e-05 1.18374e-05 1.8e-05 1.8e-05 6e-06
1 3 2.5e-05 1.5e-05 1.82475e-05 1.2e-05 1.2e-05 8e-06
ITEM: TIMESTEP
79
ITEM: NUMBER OF ATOMS
2
ITEM: BOX BOUNDS ff ff ff
0.0000000000000000e+00 5.0000000000000002e-05
0.0000000000000000e+00 5.0000000000000002e-05
0.0000000000000000e+00 3.0000000000000001e-05
ITEM: ATOMS id type x y z shapex shapey shapez
2 3 2.5e-05 1.5e-05 1.18232e-05 1.8e-05 1.8e-05 6e-06
1 3 2.5e-05 1.5e-05 1.82621e-05 1.2e-05 1.2e-05 8e-06
ITEM: TIMESTEP
80
ITEM: NUMBER OF ATOMS
2
ITEM: BOX BOUNDS ff ff ff
0.0000000000000000e+00 5.0000000000000002e-05
0.0000000000000000e+00 5.0000000000000002e-05
0.0000000000000000e+00 3.0000000000000001e-05
ITEM: ATOMS id type x y z shapex shapey shapez
2 3 2.5e-05 1.5e-05 1.18093e-05 1.8e-05 1.8e-05 6e-06
1 3 2.5e-05 1.5e-05 1.82762e-05 1.2e-05 1.2e-05 8e-06
ITEM: TIMESTEP
81
ITEM: NUMBER OF ATOMS
2
ITEM: BOX BOUNDS ff ff ff
0.0000000000000000e+00 5.0000000000000002e-05
0.0000000000000000e+00 5.0000000000000002e-05
0.0000000000000000e+00 3.0000000000000001e-05
ITEM: ATOMS id type x y z shapex shapey shapez
2 3 2.5e-05 1.5e-05 1.17956e-05 1.8e-05 1.8e-05 6e-06
1 3 2.5e-05 1.5e-05 1.82898e-05 1.2e-05 1.2e-05 8e-06
ITEM: TIMESTEP
82
ITEM: NUMBER OF ATOMS
2
ITEM: BOX BOUNDS ff ff ff
0.0000000000000000e+00 5.0000000000000002e-05
0.0000000000000000e+00 5.0000000000000002e-05
0.0000000000000000e+00 3.0000000000000001e-05
ITEM: ATOMS id type x y z shapex shapey shapez
2 3 2.5e-05 1.5e-05 1.17822e-05 1.8e-05 1.8e-05 6e-06
1 3 2.5e-05 1.5e-05 1.8303e-05 1.2e-05 1.2e-05 8e-06
ITEM: TIMESTEP
83
ITEM: NUMBER OF ATOMS
2
ITEM: BOX BOUNDS ff ff ff