ITEM: TIMESTEP
0
ITEM: NUMBER OF ATOMS
1
ITEM: BOX BOUNDS pp pp ff
0.0000000000000000e+00 3.0000000000000001e-05
0.0000000000000000e+00 3.0000000000000001e-05
0.0000000000000000e+00 3.0000000000000001e-05
ITEM: ATOMS id type x y z shapex shapey shapez
1 3 1.5e-05 1.5e-05 1.5e-05 1e-05 1e-05 1e-05
ITEM: TIMESTEP
1
ITEM: NUMBER OF ATOMS
1
ITEM: BOX BOUNDS pp pp ff
0.0000000000000000e+00 3.0000000000000001e-05
0.0000000000000000e+00 3.0000000000000001e-05
0.0000000000000000e+00 3.0000000000000001e-05
ITEM: ATOMS id type x y z shapex shapey shapez
1 3 1.5e-05 1.5e-05 1.5e-05 1.00637e-05 1.00637e-05 9.87376e-06
ITEM: TIMESTEP
2
ITEM: NUMBER OF ATOMS
1
ITEM: BOX BOUNDS pp pp ff
0.0000000000000000e+00 3.0000000000000001e-05
0.0000000000000000e+00 3.0000000000000001e-05
0.0000000000000000e+00 3.0000000000000001e-05
ITEM: ATOMS id type x y z shapex shapey shapez
1 3 1.5e-05 1.5e-05 1.5e-05 1.01279e-05 1.01279e-05 9.74911e-06
ITEM: TIMESTEP
3
ITEM: NUMBER OF ATOMS
1
ITEM: BOX BOUNDS pp pp ff
0.0000000000000000e+00 3.0000000000000001e-05
0.0000000000000000e+00 3.0000000000000001e-05
0.0000000000000000e+00 3.0000000000000001e-05
ITEM: ATOMS id type x y z shapex shapey shapez
1 3 1.5e-05 1.5e-05 1.5e-05 1.01924e-05 1.01924e-05 9.62604e-06
ITEM: TIMESTEP
4
ITEM: NUMBER OF ATOMS
1
ITEM: BOX BOUNDS pp pp ff
0.0000000000000000e+00 3.0000000000000001e-05
0.0000000000000000e+00 3.0000000000000001e-05
0.0000000000000000e+00 3.0000000000000001e-05
ITEM: ATOMS id type x y z shapex shapey shapez
1 3 1.5e-05 1.5e-05 1.5e-05 1.02573e-05 1.02573e-05 9.50452e-06
ITEM: TIMESTEP
5
ITEM: NUMBER OF ATOMS
1
ITEM: BOX BOUNDS pp pp ff
0.0000000000000000e+00 3.0000000000000001e-05
0.0000000000000000e+00 3.0000000000000001e-05
0.0000000000000000e+00 3.0000000000000001e-05
ITEM: ATOMS id type x y z shapex shapey shapez
1 3 1.5e-05 1.5e-05 1.5e-05 1.03227e-05 1.03227e-05 9.38454e-06
ITEM: TIMESTEP
6
ITEM: NUMBER OF ATOMS
1
ITEM: BOX BOUNDS pp pp ff
0.0000000000000000e+00 3.0000000000000001e-05
0.0000000000000000e+00 3.0000000000000001e-05
0.0000000000000000e+00 3.0000000000000001e-05
ITEM: ATOMS id type x y z shapex shapey shapez
1 3 1.5e-05 1.5e-05 1.5e-05 1.03885e-05 1.03885e-05 9.26607e-06
ITEM: TIMESTEP
7
ITEM: NUMBER OF ATOMS
1
ITEM: BOX BOUNDS pp pp ff
0.0000000000000000e+00 3.0000000000000001e-05
0.0000000000000000e+00 3.0000000000000001e-05
0.0000000000000000e+00 3.0000000000000001e-05
ITEM: ATOMS id type x y z shapex shapey shapez
1 3 1.5e-05 1.5e-05 1.5e-05 1.04547e-05 1.04547e-05 9.14909e-06
ITEM: TIMESTEP
8
ITEM: NUMBER OF ATOMS
1
ITEM: BOX BOUNDS pp pp ff
0.0000000000000000e+00 3.0000000000000001e-05
0.0000000000000000e+00 3.0000000000000001e-05
0.0000000000000000e+00 3.0000000000000001e-05
ITEM: ATOMS id type x y z shapex shapey shapez
1 3 1.5e-05 1.5e-05 1.5e-05 1.05213e-05 1.05213e-05 9.03359e-06
ITEM: TIMESTEP
9
ITEM: NUMBER OF ATOMS
1
ITEM: BOX BOUNDS pp pp ff
0.0000000000000000e+00 3.0000000000000001e-05
0.0000000000000000e+00 3.0000000000000001e-05
0.0000000000000000e+00 3.0000000000000001e-05
ITEM: ATOMS id type x y z shapex shapey shapez
1 3 1.5e-05 1.5e-05 1.5e-05 1.05884e-05 1.05884e-05 8.91955e-06
ITEM: TIMESTEP
10
ITEM: NUMBER OF ATOMS
1
ITEM: BOX BOUNDS pp pp ff
0.0000000000000000e+00 3.0000000000000001e-05
0.0000000000000000e+00 3.0000000000000001e-05
0.0000000000000000e+00 3.0000000000000001e-05
ITEM: ATOMS id type x y z shapex shapey shapez
1 3 1.5e-05 1.5e-05 1.5e-05 1.06558e-05 1.06558e-05 8.80695e-06
ITEM: TIMESTEP
11
ITEM: NUMBER OF ATOMS
1
ITEM: BOX BOUNDS pp pp ff
0.0000000000000000e+00 3.0000000000000001e-05
0.0000000000000000e+00 3.0000000000000001e-05
0.0000000000000000e+00 3.0000000000000001e-05
ITEM: ATOMS id type x y z shapex shapey shapez
1 3 1.5e-05 1.5e-05 1.5e-05 1.07237e-05 1.07237e-05 8.69578e-06
ITEM: TIMESTEP
12
ITEM: NUMBER OF ATOMS
1
ITEM: BOX BOUNDS pp pp ff
0.0000000000000000e+00 3.0000000000000001e-05
0.0000000000000000e+00 3.0000000000000001e-05
0.0000000000000000e+00 3.0000000000000001e-05
ITEM: ATOMS id type x y z shapex shapey shapez
1 3 1.5e-05 1.5e-05 1.5e-05 1.07921e-05 1.07921e-05 8.586e-06
ITEM: TIMESTEP
13
ITEM: NUMBER OF ATOMS
1
ITEM: BOX BOUNDS pp pp ff
0.0000000000000000e+00 3.0000000000000001e-05
0.0000000000000000e+00 3.0000000000000001e-05
0.0000000000000000e+00 3.0000000000000001e-05
ITEM: ATOMS id type x y z shapex shapey shapez
1 3 1.5e-05 1.5e-05 1.5e-05 1.08608e-05 1.08608e-05 8.47761e-06
ITEM: TIMESTEP
14
ITEM: NUMBER OF ATOMS
1
ITEM: BOX BOUNDS pp pp ff
0.0000000000000000e+00 3.0000000000000001e-05
0.0000000000000000e+00 3.0000000000000001e-05
0.0000000000000000e+00 3.0000000000000001e-05
ITEM: ATOMS id type x y z shapex shapey shapez
1 3 1.5e-05 1.5e-05 1.5e-05 1.093e-05 1.093e-05 8.37059e-06
ITEM: TIMESTEP
15
ITEM: NUMBER OF ATOMS
1
ITEM: BOX BOUNDS pp pp ff
0.0000000000000000e+00 3.0000000000000001e-05
0.0000000000000000e+00 3.0000000000000001e-05
0.0000000000000000e+00 3.0000000000000001e-05
ITEM: ATOMS id type x y z shapex shapey shapez
1 3 1.5e-05 1.5e-05 1.5e-05 1.09997e-05 1.09997e-05 8.26492e-06
ITEM: TIMESTEP
16
ITEM: NUMBER OF ATOMS
1
ITEM: BOX BOUNDS pp pp ff
0.0000000000000000e+00 3.0000000000000001e-05
0.0000000000000000e+00 3.0000000000000001e-05
0.0000000000000000e+00 3.0000000000000001e-05
ITEM: ATOMS id type x y z shapex shapey shapez
1 3 1.5e-05 1.5e-05 1.5e-05 1.10698e-05 1.10698e-05 8.16058e-06
ITEM: TIMESTEP
17
ITEM: NUMBER OF ATOMS
1
ITEM: BOX BOUNDS pp pp ff
0.0000000000000000e+00 3.0000000000000001e-05
0.0000000000000000e+00 3.0000000000000001e-05
0.0000000000000000e+00 3.0000000000000001e-05
ITEM: ATOMS id type x y z shapex shapey shapez
1 3 1.5e-05 1.5e-05 1.5e-05 1.11403e-05 1.11403e-05 8.05756e-06
ITEM: TIMESTEP
18
ITEM: NUMBER OF ATOMS
1
ITEM: BOX BOUNDS pp pp ff
0.0000000000000000e+00 3.0000000000000001e-05
0.0000000000000000e+00 3.0000000000000001e-05
0.0000000000000000e+00 3.0000000000000001e-05
ITEM: ATOMS id type x y z shapex shapey shapez
1 4 1.5e-05 1.5e-05 1.5e-05 1.12113e-05 1.12113e-05 7.95584e-06
ITEM: TIMESTEP
19
ITEM: NUMBER OF ATOMS
1
ITEM: BOX BOUNDS pp pp ff
0.0000000000000000e+00 3.0000000000000001e-05
0.0000000000000000e+00 3.0000000000000001e-05
0.0000000000000000e+00 3.0000000000000001e-05
ITEM: ATOMS id type x y z shapex shapey shapez
1 4 1.5e-05 1.5e-05 1.5e-05 1.13095e-05 1.13095e-05 7.81836e-06
ITEM: TIMESTEP
20
ITEM: NUMBER OF ATOMS
1
ITEM: BOX BOUNDS pp pp ff
0.0000000000000000e+00 3.0000000000000001e-05
0.0000000000000000e+00 3.0000000000000001e-05
0.0000000000000000e+00 3.0000000000000001e-05
ITEM: ATOMS id type x y z shapex shapey shapez
1 4 1.5e-05 1.5e-05 1.5e-05 1.14085e-05 1.14085e-05 7.68325e-06
ITEM: TIMESTEP
21
ITEM: NUMBER OF ATOMS
1
ITEM: BOX BOUNDS pp pp ff
0.0000000000000000e+00 3.0000000000000001e-05
0.0000000000000000e+00 3.0000000000000001e-05
0.0000000000000000e+00 3.0000000000000001e-05
ITEM: ATOMS id type x y z shapex shapey shapez
1 4 1.5e-05 1.5e-05 1.5e-05 1.15083e-05 1.15083e-05 7.55048e-06
ITEM: TIMESTEP
22
ITEM: NUMBER OF ATOMS
1
ITEM: BOX BOUNDS pp pp ff
0.0000000000000000e+00 3.0000000000000001e-05
0.0000000000000000e+00 3.0000000000000001e-05
0.0000000000000000e+00 3.0000000000000001e-05
ITEM: ATOMS id type x y z shapex shapey shapez
1 4 1.5e-05 1.5e-05 1.5e-05 1.16091e-05 1.16091e-05 7.42e-06
ITEM: TIMESTEP
23
ITEM: NUMBER OF ATOMS
1
ITEM: BOX BOUNDS pp pp ff
0.0000000000000000e+00 3.0000000000000001e-05
0.0000000000000000e+00 3.0000000000000001e-05
0.0000000000000000e+00 3.0000000000000001e-05
ITEM: ATOMS id type x y z shapex shapey shapez
1 4 1.5e-05 1.5e-05 1.5e-05 1.17107e-05 1.17107e-05 7.29177e-06
ITEM: TIMESTEP
24
ITEM: NUMBER OF ATOMS
1
ITEM: BOX BOUNDS pp pp ff
0.0000000000000000e+00 3.0000000000000001e-05
0.0000000000000000e+00 3.0000000000000001e-05
0.0000000000000000e+00 3.0000000000000001e-05
ITEM: ATOMS id type x y z shapex shapey shapez
1 4 1.5e-05 1.5e-05 1.5e-05 1.18132e-05 1.18132e-05 7.16576e-06
ITEM: TIMESTEP
25
ITEM: NUMBER OF ATOMS
1
ITEM: BOX BOUNDS pp pp ff
0.0000000000000000e+00 3.0000000000000001e-05
0.0000000000000000e+00 3.0000000000000001e-05
0.0000000000000000e+00 3.0000000000000001e-05
ITEM: ATOMS id type x y z shapex shapey shapez
1 4 1.5e-05 1.5e-05 1.5e-05 1.19166e-05 1.19166e-05 7.04193e-06
ITEM: TIMESTEP
26
ITEM: NUMBER OF ATOMS
1
ITEM: BOX BOUNDS pp pp ff
0.0000000000000000e+00 3.0000000000000001e-05
0.0000000000000000e+00 3.0000000000000001e-05
0.0000000000000000e+00 3.0000000000000001e-05
ITEM: ATOMS id type x y z shapex shapey shapez
1 4 1.5e-05 1.5e-05 1.5e-05 1.2021e-05 1.2021e-05 6.92024e-06
ITEM: TIMESTEP
27
ITEM: NUMBER OF ATOMS
1
ITEM: BOX BOUNDS pp pp ff
0.0000000000000000e+00 3.0000000000000001e-05
0.0000000000000000e+00 3.0000000000000001e-05
0.0000000000000000e+00 3.0000000000000001e-05
ITEM: ATOMS id type x y z shapex shapey shapez
1 4 1.5e-05 1.5e-05 1.5e-05 1.21262e-05 1.21262e-05 6.80065e-06
ITEM: TIMESTEP
28
ITEM: NUMBER OF ATOMS
1
ITEM: BOX BOUNDS pp pp ff
0.0000000000000000e+00 3.0000000000000001e-05
0.0000000000000000e+00 3.0000000000000001e-05
0.0000000000000000e+00 3.0000000000000001e-05
ITEM: ATOMS id type x y z shapex shapey shapez
1 4 1.5e-05 1.5e-05 1.5e-05 1.22324e-05 1.22324e-05 6.68313e-06
ITEM: TIMESTEP
29
ITEM: NUMBER OF ATOMS
1
ITEM: BOX BOUNDS pp pp ff
0.0000000000000000e+00 3.0000000000000001e-05
0.0000000000000000e+00 3.0000000000000001e-05
0.0000000000000000e+00 3.0000000000000001e-05
ITEM: ATOMS id type x y z shapex shapey shapez
1 4 1.5e-05 1.5e-05 1.5e-05 1.23394e-05 1.23394e-05 6.56764e-06
ITEM: TIMESTEP
30
ITEM: NUMBER OF ATOMS
1
ITEM: BOX BOUNDS pp pp ff
0.0000000000000000e+00 3.0000000000000001e-05
0.0000000000000000e+00 3.0000000000000001e-05
0.0000000000000000e+00 3.0000000000000001e-05
ITEM: ATOMS id type x y z shapex shapey shapez
1 4 1.5e-05 1.5e-05 1.5e-05 1.24475e-05 1.24475e-05 6.45414e-06
ITEM: TIMESTEP
31
ITEM: NUMBER OF ATOMS
1
ITEM: BOX BOUNDS pp pp ff
0.0000000000000000e+00 3.0000000000000001e-05
0.0000000000000000e+00 3.0000000000000001e-05
0.0000000000000000e+00 3.0000000000000001e-05
ITEM: ATOMS id type x y z shapex shapey shapez
1 4 1.5e-05 1.5e-05 1.5e-05 1.25564e-05 1.25564e-05 6.34261e-06
ITEM: TIMESTEP
32
ITEM: NUMBER OF ATOMS
1
ITEM: BOX BOUNDS pp pp ff
0.0000000000000000e+00 3.0000000000000001e-05
0.0000000000000000e+00 3.0000000000000001e-05
0.0000000000000000e+00 3.0000000000000001e-05
ITEM: ATOMS id type x y z shapex shapey shapez
1 4 1.5e-05 1.5e-05 1.5e-05 1.26663e-05 1.26663e-05 6.233e-06
ITEM: TIMESTEP
33
ITEM: NUMBER OF ATOMS
1
ITEM: BOX BOUNDS pp pp ff
0.0000000000000000e+00 3.0000000000000001e-05
0.0000000000000000e+00 3.0000000000000001e-05
0.0000000000000000e+00 3.0000000000000001e-05
ITEM: ATOMS id type x y z shapex shapey shapez
1 4 1.5e-05 1.5e-05 1.5e-05 1.27772e-05 1.27772e-05 6.12529e-06
ITEM: TIMESTEP
34
ITEM: NUMBER OF ATOMS
1
ITEM: BOX BOUNDS pp pp ff
0.0000000000000000e+00 3.0000000000000001e-05
0.0000000000000000e+00 3.0000000000000001e-05
0.0000000000000000e+00 3.0000000000000001e-05
ITEM: ATOMS id type x y z shapex shapey shapez
1 4 1.5e-05 1.5e-05 1.5e-05 1.28891e-05 1.28891e-05 6.01944e-06
ITEM: TIMESTEP
35
ITEM: NUMBER OF ATOMS
1
ITEM: BOX BOUNDS pp pp ff
0.0000000000000000e+00 3.0000000000000001e-05
0.0000000000000000e+00 3.0000000000000001e-05
0.0000000000000000e+00 3.0000000000000001e-05
ITEM: ATOMS id type x y z shapex shapey shapez
1 4 1.5e-05 1.5e-05 1.5e-05 1.30019e-05 1.30019e-05 5.91541e-06
ITEM: TIMESTEP
36
ITEM: NUMBER OF ATOMS
1
ITEM: BOX BOUNDS pp pp ff
0.0000000000000000e+00 3.0000000000000001e-05
0.0000000000000000e+00 3.0000000000000001e-05
0.0000000000000000e+00 3.0000000000000001e-05
ITEM: ATOMS id type x y z shapex shapey shapez
1 4 1.5e-05 1.5e-05 1.5e-05 1.31157e-05 1.31157e-05 5.81319e-06
ITEM: TIMESTEP
37
ITEM: NUMBER OF ATOMS
1
ITEM: BOX BOUNDS pp pp ff
0.0000000000000000e+00 3.0000000000000001e-05
0.0000000000000000e+00 3.0000000000000001e-05
0.0000000000000000e+00 3.0000000000000001e-05
ITEM: ATOMS id type x y z shapex shapey shapez
1 4 1.5e-05 1.5e-05 1.5e-05 1.32306e-05 1.32306e-05 5.71273e-06
ITEM: TIMESTEP
38
ITEM: NUMBER OF ATOMS
1
ITEM: BOX BOUNDS pp pp ff
0.0000000000000000e+00 3.0000000000000001e-05
0.0000000000000000e+00 3.0000000000000001e-05
0.0000000000000000e+00 3.0000000000000001e-05
ITEM: ATOMS id type x y z shapex shapey shapez
1 4 1.5e-05 1.5e-05 1.5e-05 1.33464e-05 1.33464e-05 5.61401e-06
ITEM: TIMESTEP
39
ITEM: NUMBER OF ATOMS
1
ITEM: BOX BOUNDS pp pp ff
0.0000000000000000e+00 3.0000000000000001e-05
0.0000000000000000e+00 3.0000000000000001e-05
0.0000000000000000e+00 3.0000000000000001e-05
ITEM: ATOMS id type x y z shapex shapey shapez
1 4 1.5e-05 1.5e-05 1.5e-05 1.34632e-05 1.34632e-05 5.51699e-06
ITEM: TIMESTEP
40
ITEM: NUMBER OF ATOMS
1
ITEM: BOX BOUNDS pp pp ff
0.0000000000000000e+00 3.0000000000000001e-05
0.0000000000000000e+00 3.0000000000000001e-05
0.0000000000000000e+00 3.0000000000000001e-05
ITEM: ATOMS id type x y z shapex shapey shapez
1 4 1.5e-05 1.5e-05 1.5e-05 1.35811e-05 1.35811e-05 5.42165e-06
ITEM: TIMESTEP
41
ITEM: NUMBER OF ATOMS
1
ITEM: BOX BOUNDS pp pp ff
0.0000000000000000e+00 3.0000000000000001e-05
0.0000000000000000e+00 3.0000000000000001e-05
0.0000000000000000e+00 3.0000000000000001e-05
ITEM: ATOMS id type x y z shapex shapey shapez
1 4 1.5e-05 1.5e-05 1.5e-05 1.37e-05 1.37e-05 5.32796e-06
ITEM: TIMESTEP
42
ITEM: NUMBER OF ATOMS
1
ITEM: BOX BOUNDS pp pp ff
0.0000000000000000e+00 3.0000000000000001e-05
0.0000000000000000e+00 3.0000000000000001e-05
0.0000000000000000e+00 3.0000000000000001e-05
ITEM: ATOMS id type x y z shapex shapey shapez
1 4 1.5e-05 1.5e-05 1.5e-05 1.38199e-05 1.38199e-05 5.23589e-06
ITEM: TIMESTEP
43
ITEM: NUMBER OF ATOMS
1
ITEM: BOX BOUNDS pp pp ff
0.0000000000000000e+00 3.0000000000000001e-05
0.0000000000000000e+00 3.0000000000000001e-05
0.0000000000000000e+00 3.0000000000000001e-05
ITEM: ATOMS id type x y z shapex shapey shapez
1 4 1.5e-05 1.5e-05 1.5e-05 1.39409e-05 1.39409e-05 5.14541e-06
ITEM: TIMESTEP
44
ITEM: NUMBER OF ATOMS
1
ITEM: BOX BOUNDS pp pp ff
0.0000000000000000e+00 3.0000000000000001e-05
0.0000000000000000e+00 3.0000000000000001e-05
0.0000000000000000e+00 3.0000000000000001e-05
ITEM: ATOMS id type x y z shapex shapey shapez
1 4 1.5e-05 1.5e-05 1.5e-05 1.40629e-05 1.40629e-05 5.05649e-06
ITEM: TIMESTEP
45
ITEM: NUMBER OF ATOMS
1
ITEM: BOX BOUNDS pp pp ff
0.0000000000000000e+00 3.0000000000000001e-05
0.0000000000000000e+00 3.0000000000000001e-05
0.0000000000000000e+00 3.0000000000000001e-05
ITEM: ATOMS id type x y z shapex shapey shapez
1 4 1.5e-05 1.5e-05 1.5e-05 1.4186e-05 1.4186e-05 4.96911e-06
ITEM: TIMESTEP
46
ITEM: NUMBER OF ATOMS
1
ITEM: BOX BOUNDS pp pp ff
0.0000000000000000e+00 3.0000000000000001e-05
0.0000000000000000e+00 3.0000000000000001e-05
0.0000000000000000e+00 3.0000000000000001e-05
ITEM: ATOMS id type x y z shapex shapey shapez
1 4 1.5e-05 1.5e-05 1.5e-05 1.43102e-05 1.43102e-05 4.88324e-06
ITEM: TIMESTEP
47
ITEM: NUMBER OF ATOMS
1
ITEM: BOX BOUNDS pp pp ff
0.0000000000000000e+00 3.0000000000000001e-05
0.0000000000000000e+00 3.0000000000000001e-05
0.0000000000000000e+00 3.0000000000000001e-05
ITEM: ATOMS id type x y z shapex shapey shapez
1 4 1.5e-05 1.5e-05 1.5e-05 1.44355e-05 1.44355e-05 4.79885e-06
ITEM: TIMESTEP
48
ITEM: NUMBER OF ATOMS
1
ITEM: BOX BOUNDS pp pp ff
0.0000000000000000e+00 3.0000000000000001e-05
0.0000000000000000e+00 3.0000000000000001e-05
0.0000000000000000e+00 3.0000000000000001e-05
ITEM: ATOMS id type x y z shapex shapey shapez
1 4 1.5e-05 1.5e-05 1.5e-05 1.45619e-05 1.45619e-05 4.71592e-06
ITEM: TIMESTEP
49
ITEM: NUMBER OF ATOMS
1
ITEM: BOX BOUNDS pp pp ff
0.0000000000000000e+00 3.0000000000000001e-05
0.0000000000000000e+00 3.0000000000000001e-05
0.0000000000000000e+00 3.0000000000000001e-05
ITEM: ATOMS id type x y z shapex shapey shapez
1 4 1.5e-05 1.5e-05 1.5e-05 1.46893e-05 1.46893e-05 4.63443e-06
ITEM: TIMESTEP
50
ITEM: NUMBER OF ATOMS
1
ITEM: BOX BOUNDS pp pp ff
0.0000000000000000e+00 3.0000000000000001e-05
0.0000000000000000e+00 3.0000000000000001e-05
0.0000000000000000e+00 3.0000000000000001e-05
ITEM: ATOMS id type x y z shapex shapey shapez
1 4 1.5e-05 1.5e-05 1.5e-05 1.48179e-05 1.48179e-05 4.55434e-06
ITEM: TIMESTEP
51
ITEM: NUMBER OF ATOMS
1
ITEM: BOX BOUNDS pp pp ff
0.0000000000000000e+00 3.0000000000000001e-05
0.0000000000000000e+00 3.0000000000000001e-05
0.0000000000000000e+00 3.0000000000000001e-05
ITEM: ATOMS id type x y z shapex shapey shapez
1 4 1.5e-05 1.5e-05 1.5e-05 1.49476e-05 1.49476e-05 4.47563e-06
ITEM: TIMESTEP
52
ITEM: NUMBER OF ATOMS
1
ITEM: BOX BOUNDS pp pp ff
0.0000000000000000e+00 3.0000000000000001e-05
0.0000000000000000e+00 3.0000000000000001e-05
0.0000000000000000e+00 3.0000000000000001e-05
ITEM: ATOMS id type x y z shapex shapey shapez
1 4 1.5e-05 1.5e-05 1.5e-05 1.50785e-05 1.50785e-05 4.39829e-06
ITEM: TIMESTEP
53
ITEM: NUMBER OF ATOMS
1
ITEM: BOX BOUNDS pp pp ff
0.0000000000000000e+00 3.0000000000000001e-05
0.0000000000000000e+00 3.0000000000000001e-05
0.0000000000000000e+00 3.0000000000000001e-05
ITEM: ATOMS id type x y z shapex shapey shapez
1 4 1.5e-05 1.5e-05 1.5e-05 1.52105e-05 1.52105e-05 4.32228e-06
ITEM: TIMESTEP
54
ITEM: NUMBER OF ATOMS
1
ITEM: BOX BOUNDS pp pp ff
0.0000000000000000e+00 3.0000000000000001e-05
0.0000000000000000e+00 3.0000000000000001e-05
0.0000000000000000e+00 3.0000000000000001e-05
ITEM: ATOMS id type x y z shapex shapey shapez
1 4 1.5e-05 1.5e-05 1.5e-05 1.53437e-05 1.53437e-05 4.24759e-06
ITEM: TIMESTEP
55
ITEM: NUMBER OF ATOMS
1
ITEM: BOX BOUNDS pp pp ff
0.0000000000000000e+00 3.0000000000000001e-05
0.0000000000000000e+00 3.0000000000000001e-05
0.0000000000000000e+00 3.0000000000000001e-05
ITEM: ATOMS id type x y z shapex shapey shapez
1 4 1.5e-05 1.5e-05 1.5e-05 1.5478e-05 1.5478e-05 4.17419e-06
ITEM: TIMESTEP
56
ITEM: NUMBER OF ATOMS
1
ITEM: BOX BOUNDS pp pp ff
0.0000000000000000e+00 3.0000000000000001e-05
0.0000000000000000e+00 3.0000000000000001e-05
0.0000000000000000e+00 3.0000000000000001e-05
ITEM: ATOMS id type x y z shapex shapey shapez
1 4 1.5e-05 1.5e-05 1.5e-05 1.56135e-05 1.56135e-05 4.10205e-06
ITEM: TIMESTEP
57
ITEM: NUMBER OF ATOMS
1
ITEM: BOX BOUNDS pp pp ff
0.0000000000000000e+00 3.0000000000000001e-05
0.0000000000000000e+00 3.0000000000000001e-05
0.0000000000000000e+00 3.0000000000000001e-05
ITEM: ATOMS id type x y z shapex shapey shapez
1 4 1.5e-05 1.5e-05 1.5e-05 1.57502e-05 1.57502e-05 4.03117e-06
ITEM: TIMESTEP
58
ITEM: NUMBER OF ATOMS
1
ITEM: BOX BOUNDS pp pp ff
0.0000000000000000e+00 3.0000000000000001e-05
0.0000000000000000e+00 3.0000000000000001e-05
0.0000000000000000e+00 3.0000000000000001e-05
ITEM: ATOMS id type x y z shapex shapey shapez
1 4 1.5e-05 1.5e-05 1.5e-05 1.5888e-05 1.5888e-05 3.9615e-06
ITEM: TIMESTEP
59
ITEM: NUMBER OF ATOMS
1
ITEM: BOX BOUNDS pp pp ff
0.0000000000000000e+00 3.0000000000000001e-05
0.0000000000000000e+00 3.0000000000000001e-05
0.0000000000000000e+00 3.0000000000000001e-05
ITEM: ATOMS id type x y z shapex shapey shapez
1 4 1.5e-05 1.5e-05 1.5e-05 1.60271e-05 1.60271e-05 3.89304e-06
ITEM: TIMESTEP
60
ITEM: NUMBER OF ATOMS
1
ITEM: BOX BOUNDS pp pp ff
0.0000000000000000e+00 3.0000000000000001e-05
0.0000000000000000e+00 3.0000000000000001e-05
0.0000000000000000e+00 3.0000000000000001e-05
ITEM: ATOMS id type x y z shapex shapey shapez
1 4 1.5e-05 1.5e-05 1.5e-05 1.61674e-05 1.61674e-05 3.82577e-06
ITEM: TIMESTEP
61
ITEM: NUMBER OF ATOMS
1
ITEM: BOX BOUNDS pp pp ff
0.0000000000000000e+00 3.0000000000000001e-05
0.0000000000000000e+00 3.0000000000000001e-05
0.0000000000000000e+00 3.0000000000000001e-05
ITEM: ATOMS id type x y z shapex shapey shapez
1 4 1.5e-05 1.5e-05 1.5e-05 1.6309e-05 1.6309e-05 3.75965e-06
ITEM: TIMESTEP
62
ITEM: NUMBER OF ATOMS
1
ITEM: BOX BOUNDS pp pp ff
0.0000000000000000e+00 3.0000000000000001e-05
0.0000000000000000e+00 3.0000000000000001e-05
0.0000000000000000e+00 3.0000000000000001e-05
ITEM: ATOMS id type x y z shapex shapey shapez
1 4 1.5e-05 1.5e-05 1.5e-05 1.64517e-05 1.64517e-05 3.69468e-06
ITEM: TIMESTEP
63
ITEM: NUMBER OF ATOMS
1
ITEM: BOX BOUNDS pp pp ff
0.0000000000000000e+00 3.0000000000000001e-05
0.0000000000000000e+00 3.0000000000000001e-05
0.0000000000000000e+00 3.0000000000000001e-05
ITEM: ATOMS id type x y z shapex shapey shapez
1 4 1.5e-05 1.5e-05 1.5e-05 1.65957e-05 1.65957e-05 3.63084e-06
ITEM: TIMESTEP
64
ITEM: NUMBER OF ATOMS
1
ITEM: BOX BOUNDS pp pp ff
0.0000000000000000e+00 3.0000000000000001e-05
0.0000000000000000e+00 3.0000000000000001e-05
0.0000000000000000e+00 3.0000000000000001e-05
ITEM: ATOMS id type x y z shapex shapey shapez
1 4 1.5e-05 1.5e-05 1.5e-05 1.6741e-05 1.6741e-05 3.56809e-06
ITEM: TIMESTEP
65
ITEM: NUMBER OF ATOMS
1
ITEM: BOX BOUNDS pp pp ff
0.0000000000000000e+00 3.0000000000000001e-05
0.0000000000000000e+00 3.0000000000000001e-05
0.0000000000000000e+00 3.0000000000000001e-05
ITEM: ATOMS id type x y z shapex shapey shapez
1 4 1.5e-05 1.5e-05 1.5e-05 1.68876e-05 1.68876e-05 3.50643e-06
ITEM: TIMESTEP
66
ITEM: NUMBER OF ATOMS
1
ITEM: BOX BOUNDS pp pp ff
0.0000000000000000e+00 3.0000000000000001e-05
0.0000000000000000e+00 3.0000000000000001e-05
0.0000000000000000e+00 3.0000000000000001e-05
ITEM: ATOMS id type x y z shapex shapey shapez
1 4 1.5e-05 1.5e-05 1.5e-05 1.70354e-05 1.70354e-05 3.44584e-06
ITEM: TIMESTEP
67
ITEM: NUMBER OF ATOMS
1
ITEM: BOX BOUNDS pp pp ff
0.0000000000000000e+00 3.0000000000000001e-05
0.0000000000000000e+00 3.0000000000000001e-05
0.0000000000000000e+00 3.0000000000000001e-05
ITEM: ATOMS id type x y z shapex shapey shapez
1 4 1.5e-05 1.5e-05 1.5e-05 1.71845e-05 1.71845e-05 3.38629e-06
ITEM: TIMESTEP
68
ITEM: NUMBER OF ATOMS
1
ITEM: BOX BOUNDS pp pp ff
0.0000000000000000e+00 3.0000000000000001e-05
0.0000000000000000e+00 3.0000000000000001e-05
0.0000000000000000e+00 3.0000000000000001e-05
ITEM: ATOMS id type x y z shapex shapey shapez
1 4 1.5e-05 1.5e-05 1.5e-05 1.7335e-05 1.7335e-05 3.32777e-06
ITEM: TIMESTEP
69
ITEM: NUMBER OF ATOMS
1
ITEM: BOX BOUNDS pp pp ff
0.0000000000000000e+00 3.0000000000000001e-05
0.0000000000000000e+00 3.0000000000000001e-05
0.0000000000000000e+00 3.0000000000000001e-05
ITEM: ATOMS id type x y z shapex shapey shapez
1 4 1.5e-05 1.5e-05 1.5e-05 1.74867e-05 1.74867e-05 3.27026e-06
ITEM: TIMESTEP
70
ITEM: NUMBER OF ATOMS
1
ITEM: BOX BOUNDS pp pp ff
0.0000000000000000e+00 3.0000000000000001e-05
0.0000000000000000e+00 3.0000000000000001e-05
0.0000000000000000e+00 3.0000000000000001e-05
ITEM: ATOMS id type x y z shapex shapey shapez
1 4 1.5e-05 1.5e-05 1.5e-05 1.76398e-05 1.76398e-05 3.21375e-06
ITEM: TIMESTEP
71
ITEM: NUMBER OF ATOMS
1
ITEM: BOX BOUNDS pp pp ff
0.0000000000000000e+00 3.0000000000000001e-05
0.0000000000000000e+00 3.0000000000000001e-05
0.0000000000000000e+00 3.0000000000000001e-05
ITEM: ATOMS id type x y z shapex shapey shapez
1 4 1.5e-05 1.5e-05 1.5e-05 1.77942e-05 1.77942e-05 3.15821e-06
ITEM: TIMESTEP
72
ITEM: NUMBER OF ATOMS
1
ITEM: BOX BOUNDS pp pp ff
0.0000000000000000e+00 3.0000000000000001e-05
0.0000000000000000e+00 3.0000000000000001e-05
0.0000000000000000e+00 3.0000000000000001e-05
ITEM: ATOMS id type x y z shapex shapey shapez
1 4 1.5e-05 1.5e-05 1.5e-05 1.795e-05 1.795e-05 3.10364e-06
ITEM: TIMESTEP
73
ITEM: NUMBER OF ATOMS
1
ITEM: BOX BOUNDS pp pp ff
0.0000000000000000e+00 3.0000000000000001e-05
0.0000000000000000e+00 3.0000000000000001e-05
0.0000000000000000e+00 3.0000000000000001e-05
ITEM: ATOMS id type x y z shapex shapey shapez
1 4 1.5e-05 1.5e-05 1.5e-05 1.81071e-05 1.81071e-05 3.05e-06
ITEM: TIMESTEP
74
ITEM: NUMBER OF ATOMS
1
ITEM: BOX BOUNDS pp pp ff
0.0000000000000000e+00 3.0000000000000001e-05
0.0000000000000000e+00 3.0000000000000001e-05
0.0000000000000000e+00 3.0000000000000001e-05
ITEM: ATOMS id type x y z shapex shapey shapez
1 4 1.5e-05 1.5e-05 1.5e-05 1.82657e-05 1.82657e-05 2.99729e-06
ITEM: TIMESTEP
75
ITEM: NUMBER OF ATOMS
1
ITEM: BOX BOUNDS pp pp ff
0.0000000000000000e+00 3.0000000000000001e-05
0.0000000000000000e+00 3.0000000000000001e-05
0.0000000000000000e+00 3.0000000000000001e-05
ITEM: ATOMS id type x y z shapex shapey shapez
1 4 1.5e-05 1.5e-05 1.5e-05 1.84256e-05 1.84256e-05 2.9455e-06
ITEM: TIMESTEP
76
ITEM: NUMBER OF ATOMS
1
ITEM: BOX BOUNDS pp pp ff
0.0000000000000000e+00 3.0000000000000001e-05
0.0000000000000000e+00 3.0000000000000001e-05
0.0000000000000000e+00 3.0000000000000001e-05
ITEM: ATOMS id type x y z shapex shapey shapez
1 4 1.5e-05 1.5e-05 1.5e-05 1.85869e-05 1.85869e-05 2.8946e-06
ITEM: TIMESTEP
77
ITEM: NUMBER OF ATOMS
1
ITEM: BOX BOUNDS pp pp ff
0.0000000000000000e+00 3.0000000000000001e-05
0.0000000000000000e+00 3.0000000000000001e-05
0.0000000000000000e+00 3.0000000000000001e-05
ITEM: ATOMS id type x y z shapex shapey shapez
1 4 1.5e-05 1.5e-05 1.5e-05 1.87496e-05 1.87496e-05 2.84458e-06
ITEM: TIMESTEP
78
ITEM: NUMBER OF ATOMS
1
ITEM: BOX BOUNDS pp pp ff
0.0000000000000000e+00 3.0000000000000001e-05
0.0000000000000000e+00 3.0000000000000001e-05
0.0000000000000000e+00 3.0000000000000001e-05
ITEM: ATOMS id type x y z shapex shapey shapez
1 4 1.5e-05 1.5e-05 1.5e-05 1.89137e-05 1.89137e-05 2.79542e-06
ITEM: TIMESTEP
79
ITEM: NUMBER OF ATOMS
1
ITEM: BOX BOUNDS pp pp ff
0.0000000000000000e+00 3.0000000000000001e-05
0.0000000000000000e+00 3.0000000000000001e-05
0.0000000000000000e+00 3.0000000000000001e-05
ITEM: ATOMS id type x y z shapex shapey shapez
1 4 1.5e-05 1.5e-05 1.5e-05 1.90793e-05 1.90793e-05 2.74711e-06
ITEM: TIMESTEP
80
ITEM: NUMBER OF ATOMS
1
ITEM: BOX BOUNDS pp pp ff
0.0000000000000000e+00 3.0000000000000001e-05
0.0000000000000000e+00 3.0000000000000001e-05
0.0000000000000000e+00 3.0000000000000001e-05
ITEM: ATOMS id type x y z shapex shapey shapez
1 4 1.5e-05 1.5e-05 1.5e-05 1.92463e-05 1.92463e-05 2.69964e-06
ITEM: TIMESTEP
81
ITEM: NUMBER OF ATOMS
1
ITEM: BOX BOUNDS pp pp ff
0.0000000000000000e+00 3.0000000000000001e-05
0.0000000000000000e+00 3.0000000000000001e-05
0.0000000000000000e+00 3.0000000000000001e-05
ITEM: ATOMS id type x y z shapex shapey shapez
1 4 1.5e-05 1.5e-05 1.5e-05 1.94148e-05 1.94148e-05 2.65298e-06
ITEM: TIMESTEP
82
ITEM: NUMBER OF ATOMS
1
ITEM: BOX BOUNDS pp pp ff
0.0000000000000000e+00 3.0000000000000001e-05
0.0000000000000000e+00 3.0000000000000001e-05
0.0000000000000000e+00 3.0000000000000001e-05
ITEM: ATOMS id type x y z shapex shapey shapez
1 4 1.5e-05 1.5e-05 1.5e-05 1.95847e-05 1.95847e-05 2.60714e-06
ITEM: TIMESTEP
83
ITEM: NUMBER OF ATOMS
1
ITEM: BOX BOUNDS pp pp ff
0.0000000000000000e+00 3.0000000000000001e-05
0.0000000000000000e+00 3.0000000000000001e-05
0.0000000000000000e+00 3.0000000000000001e-05
ITEM: ATOMS id type x y z shapex shapey shapez
1 4 1.5e-05 1.5e-05 1.5e-05 1.97562e-05 1.97562e-05 2.56208e-06
ITEM: TIMESTEP
84
ITEM: NUMBER OF ATOMS
1
ITEM: BOX BOUNDS pp pp ff
0.0000000000000000e+00 3.0000000000000001e-05
0.0000000000000000e+00 3.0000000000000001e-05
0.0000000000000000e+00 3.0000000000000001e-05
ITEM: ATOMS id type x y z shapex shapey shapez
1 4 1.5e-05 1.5e-05 1.5e-05 1.99291e-05 1.99291e-05 2.51781e-06
ITEM: TIMESTEP
85
ITEM: NUMBER OF ATOMS
1
ITEM: BOX BOUNDS pp pp ff
0.0000000000000000e+00 3.0000000000000001e-05
0.0000000000000000e+00 3.0000000000000001e-05
0.0000000000000000e+00 3.0000000000000001e-05
ITEM: ATOMS id type x y z shapex shapey shapez
1 4 1.5e-05 1.5e-05 1.5e-05 2.01036e-05 2.01036e-05 2.4743e-06
ITEM: TIMESTEP
86
ITEM: NUMBER OF ATOMS
1
ITEM: BOX BOUNDS pp pp ff
0.0000000000000000e+00 3.0000000000000001e-05
0.0000000000000000e+00 3.0000000000000001e-05
0.0000000000000000e+00 3.0000000000000001e-05
ITEM: ATOMS id type x y z shapex shapey shapez
1 4 1.5e-05 1.5e-05 1.5e-05 2.02796e-05 2.02796e-05 2.43154e-06
ITEM: TIMESTEP
87
ITEM: NUMBER OF ATOMS
1
ITEM: BOX BOUNDS pp pp ff
0.0000000000000000e+00 3.0000000000000001e-05
0.0000000000000000e+00 3.0000000000000001e-05
0.0000000000000000e+00 3.0000000000000001e-05
ITEM: ATOMS id type x y z shapex shapey shapez
1 4 1.5e-05 1.5e-05 1.5e-05 2.04571e-05 2.04571e-05 2.38952e-06
ITEM: TIMESTEP
88
ITEM: NUMBER OF ATOMS
1
ITEM: BOX BOUNDS pp pp ff
0.0000000000000000e+00 3.0000000000000001e-05
0.0000000000000000e+00 3.0000000000000001e-05
0.0000000000000000e+00 3.0000000000000001e-05
ITEM: ATOMS id type x y z shapex shapey shapez
1 4 1.5e-05 1.5e-05 1.5e-05 2.06362e-05 2.06362e-05 2.34823e-06
ITEM: TIMESTEP
89
ITEM: NUMBER OF ATOMS
1
ITEM: BOX BOUNDS pp pp ff
0.0000000000000000e+00 3.0000000000000001e-05
0.0000000000000000e+00 3.0000000000000001e-05
0.0000000000000000e+00 3.0000000000000001e-05
ITEM: ATOMS id type x y z shapex shapey shapez
1 4 1.5e-05 1.5e-05 1.5e-05 2.08169e-05 2.08169e-05 2.30765e-06
ITEM: TIMESTEP
90
ITEM: NUMBER OF ATOMS
1
ITEM: BOX BOUNDS pp pp ff
0.0000000000000000e+00 3.0000000000000001e-05
0.0000000000000000e+00 3.0000000000000001e-05
0.0000000000000000e+00 3.0000000000000001e-05
ITEM: ATOMS id type x y z shapex shapey shapez
1 4 1.5e-05 1.5e-05 1.5e-05 2.09991e-05 2.09991e-05 2.26777e-06
ITEM: TIMESTEP
91
ITEM: NUMBER OF ATOMS
1
ITEM: BOX BOUNDS pp pp ff
0.0000000000000000e+00 3.0000000000000001e-05
0.0000000000000000e+00 3.0000000000000001e-05
0.0000000000000000e+00 3.0000000000000001e-05
ITEM: ATOMS id type x y z shapex shapey shapez
1 4 1.5e-05 1.5e-05 1.5e-05 2.11829e-05 2.11829e-05 2.22858e-06
ITEM: TIMESTEP
92
ITEM: NUMBER OF ATOMS
1
ITEM: BOX BOUNDS pp pp ff
0.0000000000000000e+00 3.0000000000000001e-05
0.0000000000000000e+00 3.0000000000000001e-05
0.0000000000000000e+00 3.0000000000000001e-05
ITEM: ATOMS id type x y z shapex shapey shapez
1 4 1.5e-05 1.5e-05 1.5e-05 2.13684e-05 2.13684e-05 2.19007e-06
ITEM: TIMESTEP
93
ITEM: NUMBER OF ATOMS
1
ITEM: BOX BOUNDS pp pp ff
0.0000000000000000e+00 3.0000000000000001e-05
0.0000000000000000e+00 3.0000000000000001e-05
0.0000000000000000e+00 3.0000000000000001e-05
ITEM: ATOMS id type x y z shapex shapey shapez
1 4 1.5e-05 1.5e-05 1.5e-05 2.15554e-05 2.15554e-05 2.15222e-06
ITEM: TIMESTEP
94
ITEM: NUMBER OF ATOMS
1
ITEM: BOX BOUNDS pp pp ff
0.0000000000000000e+00 3.0000000000000001e-05
0.0000000000000000e+00 3.0000000000000001e-05
0.0000000000000000e+00 3.0000000000000001e-05
ITEM: ATOMS id type x y z shapex shapey shapez