NUFEB Simulation 

       2 atoms 
       5 atom types 

   0   5e-5  xlo xhi 
   0   5e-5  ylo yhi 
   0   3e-5  zlo zhi 

 Atoms 

     1 3 150 2.2e-5 1.5e-5 1.7e-5 1.2e-5 1.2e-5 0.8e-5
     2 3 150 2e-5 1.5e-5 1.5e-5 1.8e-5 1.8e-5 0.6e-5
     
