ITEM: TIMESTEP
0
ITEM: NUMBER OF ATOMS
2
ITEM: BOX BOUNDS ff ff ff
0.0000000000000000e+00 5.0000000000000002e-05
0.0000000000000000e+00 5.0000000000000002e-05
0.0000000000000000e+00 3.0000000000000001e-05
ITEM: ATOMS id type x y z shapex shapey shapez
1 3 2.2e-05 1.5e-05 1.7e-05 1.2e-05 1.2e-05 8e-06
2 3 2e-05 1.5e-05 1.5e-05 1.8e-05 1.8e-05 6e-06
ITEM: TIMESTEP
1
ITEM: NUMBER OF ATOMS
2
ITEM: BOX BOUNDS ff ff ff
0.0000000000000000e+00 5.0000000000000002e-05
0.0000000000000000e+00 5.0000000000000002e-05
0.0000000000000000e+00 3.0000000000000001e-05
ITEM: ATOMS id type x y z shapex shapey shapez
1 3 2.20594e-05 1.5e-05 1.70594e-05 1.2e-05 1.2e-05 8e-06
2 3 1.99604e-05 1.5e-05 1.49604e-05 1.8e-05 1.8e-05 6e-06
ITEM: TIMESTEP
2
ITEM: NUMBER OF ATOMS
2
ITEM: BOX BOUNDS ff ff ff
0.0000000000000000e+00 5.0000000000000002e-05
0.0000000000000000e+00 5.0000000000000002e-05
0.0000000000000000e+00 3.0000000000000001e-05
ITEM: ATOMS id type x y z shapex shapey shapez
1 3 2.21807e-05 1.5e-05 1.71807e-05 1.2e-05 1.2e-05 8e-06
2 3 1.98671e-05 1.5e-05 1.48671e-05 1.8e-05 1.8e-05 6e-06
ITEM: TIMESTEP
3
ITEM: NUMBER OF ATOMS
2
ITEM: BOX BOUNDS ff ff ff
0.0000000000000000e+00 5.0000000000000002e-05
0.0000000000000000e+00 5.0000000000000002e-05
0.0000000000000000e+00 3.0000000000000001e-05
ITEM: ATOMS id type x y z shapex shapey shapez
1 3 2.23266e-05 1.5e-05 1.73266e-05 1.2e-05 1.2e-05 8e-06
2 3 1.97426e-05 1.5e-05 1.47426e-05 1.8e-05 1.8e-05 6e-06
ITEM: TIMESTEP
4
ITEM: NUMBER OF ATOMS
2
ITEM: BOX BOUNDS ff ff ff
0.0000000000000000e+00 5.0000000000000002e-05
0.0000000000000000e+00 5.0000000000000002e-05
0.0000000000000000e+00 3.0000000000000001e-05
ITEM: ATOMS id type x y z shapex shapey shapez
1 3 2.24856e-05 1.5e-05 1.74856e-05 1.2e-05 1.2e-05 8e-06
2 3 1.95984e-05 1.5e-05 1.45984e-05 1.8e-05 1.8e-05 6e-06
ITEM: TIMESTEP
5
ITEM: NUMBER OF ATOMS
2
ITEM: BOX BOUNDS ff ff ff
0.0000000000000000e+00 5.0000000000000002e-05
0.0000000000000000e+00 5.0000000000000002e-05
0.0000000000000000e+00 3.0000000000000001e-05
ITEM: ATOMS id type x y z shapex shapey shapez
1 3 2.26529e-05 1.5e-05 1.76529e-05 1.2e-05 1.2e-05 8e-06
2 3 1.94411e-05 1.5e-05 1.44411e-05 1.8e-05 1.8e-05 6e-06
ITEM: TIMESTEP
6
ITEM: NUMBER OF ATOMS
2
ITEM: BOX BOUNDS ff ff ff
0.0000000000000000e+00 5.0000000000000002e-05
0.0000000000000000e+00 5.0000000000000002e-05
0.0000000000000000e+00 3.0000000000000001e-05
ITEM: ATOMS id type x y z shapex shapey shapez
1 3 2.28231e-05 1.5e-05 1.78231e-05 1.2e-05 1.2e-05 8e-06
2 3 1.92767e-05 1.5e-05 1.42767e-05 1.8e-05 1.8e-05 6e-06
ITEM: TIMESTEP
7
ITEM: NUMBER OF ATOMS
2
ITEM: BOX BOUNDS ff ff ff
0.0000000000000000e+00 5.0000000000000002e-05
0.0000000000000000e+00 5.0000000000000002e-05
0.0000000000000000e+00 3.0000000000000001e-05
ITEM: ATOMS id type x y z shapex shapey shapez
1 3 2.29916e-05 1.5e-05 1.79916e-05 1.2e-05 1.2e-05 8e-06
2 3 1.91106e-05 1.5e-05 1.41106e-05 1.8e-05 1.8e-05 6e-06
ITEM: TIMESTEP
8
ITEM: NUMBER OF ATOMS
2
ITEM: BOX BOUNDS ff ff ff
0.0000000000000000e+00 5.0000000000000002e-05
0.0000000000000000e+00 5.0000000000000002e-05
0.0000000000000000e+00 3.0000000000000001e-05
ITEM: ATOMS id type x y z shapex shapey shapez
1 3 2.31545e-05 1.5e-05 1.81545e-05 1.2e-05 1.2e-05 8e-06
2 3 1.89471e-05 1.5e-05 1.39471e-05 1.8e-05 1.8e-05 6e-06
ITEM: TIMESTEP
9
ITEM: NUMBER OF ATOMS
2
ITEM: BOX BOUNDS ff ff ff
0.0000000000000000e+00 5.0000000000000002e-05
0.0000000000000000e+00 5.0000000000000002e-05
0.0000000000000000e+00 3.0000000000000001e-05
ITEM: ATOMS id type x y z shapex shapey shapez
1 3 2.33093e-05 1.5e-05 1.83093e-05 1.2e-05 1.2e-05 8e-06
2 3 1.87896e-05 1.5e-05 1.37896e-05 1.8e-05 1.8e-05 6e-06
ITEM: TIMESTEP
10
ITEM: NUMBER OF ATOMS
2
ITEM: BOX BOUNDS ff ff ff
0.0000000000000000e+00 5.0000000000000002e-05
0.0000000000000000e+00 5.0000000000000002e-05
0.0000000000000000e+00 3.0000000000000001e-05
ITEM: ATOMS id type x y z shapex shapey shapez
1 3 2.34537e-05 1.5e-05 1.84537e-05 1.2e-05 1.2e-05 8e-06
2 3 1.86405e-05 1.5e-05 1.36405e-05 1.8e-05 1.8e-05 6e-06
ITEM: TIMESTEP
11
ITEM: NUMBER OF ATOMS
2
ITEM: BOX BOUNDS ff ff ff
0.0000000000000000e+00 5.0000000000000002e-05
0.0000000000000000e+00 5.0000000000000002e-05
0.0000000000000000e+00 3.0000000000000001e-05
ITEM: ATOMS id type x y z shapex shapey shapez
1 3 2.35864e-05 1.5e-05 1.85864e-05 1.2e-05 1.2e-05 8e-06
2 3 1.85019e-05 1.5e-05 1.35019e-05 1.8e-05 1.8e-05 6e-06
ITEM: TIMESTEP
12
ITEM: NUMBER OF ATOMS
2
ITEM: BOX BOUNDS ff ff ff
0.0000000000000000e+00 5.0000000000000002e-05
0.0000000000000000e+00 5.0000000000000002e-05
0.0000000000000000e+00 3.0000000000000001e-05
ITEM: ATOMS id type x y z shapex shapey shapez
1 3 2.37067e-05 1.5e-05 1.87067e-05 1.2e-05 1.2e-05 8e-06
2 3 1.83748e-05 1.5e-05 1.33748e-05 1.8e-05 1.8e-05 6e-06
ITEM: TIMESTEP
13
ITEM: NUMBER OF ATOMS
2
ITEM: BOX BOUNDS ff ff ff
0.0000000000000000e+00 5.0000000000000002e-05
0.0000000000000000e+00 5.0000000000000002e-05
0.0000000000000000e+00 3.0000000000000001e-05
ITEM: ATOMS id type x y z shapex shapey shapez
1 3 2.38144e-05 1.5e-05 1.88144e-05 1.2e-05 1.2e-05 8e-06
2 3 1.82598e-05 1.5e-05 1.32598e-05 1.8e-05 1.8e-05 6e-06
ITEM: TIMESTEP
14
ITEM: NUMBER OF ATOMS
2
ITEM: BOX BOUNDS ff ff ff
0.0000000000000000e+00 5.0000000000000002e-05
0.0000000000000000e+00 5.0000000000000002e-05
0.0000000000000000e+00 3.0000000000000001e-05
ITEM: ATOMS id type x y z shapex shapey shapez
1 3 2.39098e-05 1.5e-05 1.89098e-05 1.2e-05 1.2e-05 8e-06
2 3 1.81569e-05 1.5e-05 1.31569e-05 1.8e-05 1.8e-05 6e-06
ITEM: TIMESTEP
15
ITEM: NUMBER OF ATOMS
2
ITEM: BOX BOUNDS ff ff ff
0.0000000000000000e+00 5.0000000000000002e-05
0.0000000000000000e+00 5.0000000000000002e-05
0.0000000000000000e+00 3.0000000000000001e-05
ITEM: ATOMS id type x y z shapex shapey shapez
1 3 2.39937e-05 1.5e-05 1.89937e-05 1.2e-05 1.2e-05 8e-06
2 3 1.80657e-05 1.5e-05 1.30657e-05 1.8e-05 1.8e-05 6e-06
ITEM: TIMESTEP
16
ITEM: NUMBER OF ATOMS
2
ITEM: BOX BOUNDS ff ff ff
0.0000000000000000e+00 5.0000000000000002e-05
0.0000000000000000e+00 5.0000000000000002e-05
0.0000000000000000e+00 3.0000000000000001e-05
ITEM: ATOMS id type x y z shapex shapey shapez
1 3 2.40668e-05 1.5e-05 1.90668e-05 1.2e-05 1.2e-05 8e-06
2 3 1.79855e-05 1.5e-05 1.29855e-05 1.8e-05 1.8e-05 6e-06
ITEM: TIMESTEP
17
ITEM: NUMBER OF ATOMS
2
ITEM: BOX BOUNDS ff ff ff
0.0000000000000000e+00 5.0000000000000002e-05
0.0000000000000000e+00 5.0000000000000002e-05
0.0000000000000000e+00 3.0000000000000001e-05
ITEM: ATOMS id type x y z shapex shapey shapez
1 3 2.41302e-05 1.5e-05 1.91302e-05 1.2e-05 1.2e-05 8e-06
2 3 1.79156e-05 1.5e-05 1.29156e-05 1.8e-05 1.8e-05 6e-06
ITEM: TIMESTEP
18
ITEM: NUMBER OF ATOMS
2
ITEM: BOX BOUNDS ff ff ff
0.0000000000000000e+00 5.0000000000000002e-05
0.0000000000000000e+00 5.0000000000000002e-05
0.0000000000000000e+00 3.0000000000000001e-05
ITEM: ATOMS id type x y z shapex shapey shapez
1 3 2.41849e-05 1.5e-05 1.91849e-05 1.2e-05 1.2e-05 8e-06
2 3 1.78549e-05 1.5e-05 1.28549e-05 1.8e-05 1.8e-05 6e-06
ITEM: TIMESTEP
19
ITEM: NUMBER OF ATOMS
2
ITEM: BOX BOUNDS ff ff ff
0.0000000000000000e+00 5.0000000000000002e-05
0.0000000000000000e+00 5.0000000000000002e-05
0.0000000000000000e+00 3.0000000000000001e-05
ITEM: ATOMS id type x y z shapex shapey shapez
1 3 2.4232e-05 1.5e-05 1.9232e-05 1.2e-05 1.2e-05 8e-06
2 3 1.78026e-05 1.5e-05 1.28026e-05 1.8e-05 1.8e-05 6e-06
ITEM: TIMESTEP
20
ITEM: NUMBER OF ATOMS
2
ITEM: BOX BOUNDS ff ff ff
0.0000000000000000e+00 5.0000000000000002e-05
0.0000000000000000e+00 5.0000000000000002e-05
0.0000000000000000e+00 3.0000000000000001e-05
ITEM: ATOMS id type x y z shapex shapey shapez
1 3 2.42722e-05 1.5e-05 1.92722e-05 1.2e-05 1.2e-05 8e-06
2 3 1.77575e-05 1.5e-05 1.27575e-05 1.8e-05 1.8e-05 6e-06
ITEM: TIMESTEP
21
ITEM: NUMBER OF ATOMS
2
ITEM: BOX BOUNDS ff ff ff
0.0000000000000000e+00 5.0000000000000002e-05
0.0000000000000000e+00 5.0000000000000002e-05
0.0000000000000000e+00 3.0000000000000001e-05
ITEM: ATOMS id type x y z shapex shapey shapez
1 3 2.43066e-05 1.5e-05 1.93066e-05 1.2e-05 1.2e-05 8e-06
2 3 1.77189e-05 1.5e-05 1.27189e-05 1.8e-05 1.8e-05 6e-06
ITEM: TIMESTEP
22
ITEM: NUMBER OF ATOMS
2
ITEM: BOX BOUNDS ff ff ff
0.0000000000000000e+00 5.0000000000000002e-05
0.0000000000000000e+00 5.0000000000000002e-05
0.0000000000000000e+00 3.0000000000000001e-05
ITEM: ATOMS id type x y z shapex shapey shapez
1 3 2.4336e-05 1.5e-05 1.9336e-05 1.2e-05 1.2e-05 8e-06
2 3 1.76859e-05 1.5e-05 1.26859e-05 1.8e-05 1.8e-05 6e-06
ITEM: TIMESTEP
23
ITEM: NUMBER OF ATOMS
2
ITEM: BOX BOUNDS ff ff ff
0.0000000000000000e+00 5.0000000000000002e-05
0.0000000000000000e+00 5.0000000000000002e-05
0.0000000000000000e+00 3.0000000000000001e-05
ITEM: ATOMS id type x y z shapex shapey shapez
1 3 2.43609e-05 1.5e-05 1.93609e-05 1.2e-05 1.2e-05 8e-06
2 3 1.76577e-05 1.5e-05 1.26577e-05 1.8e-05 1.8e-05 6e-06
ITEM: TIMESTEP
24
ITEM: NUMBER OF ATOMS
2
ITEM: BOX BOUNDS ff ff ff
0.0000000000000000e+00 5.0000000000000002e-05
0.0000000000000000e+00 5.0000000000000002e-05
0.0000000000000000e+00 3.0000000000000001e-05
ITEM: ATOMS id type x y z shapex shapey shapez
1 3 2.43822e-05 1.5e-05 1.93822e-05 1.2e-05 1.2e-05 8e-06
2 3 1.76338e-05 1.5e-05 1.26338e-05 1.8e-05 1.8e-05 6e-06
ITEM: TIMESTEP
25
ITEM: NUMBER OF ATOMS
2
ITEM: BOX BOUNDS ff ff ff
0.0000000000000000e+00 5.0000000000000002e-05
0.0000000000000000e+00 5.0000000000000002e-05
0.0000000000000000e+00 3.0000000000000001e-05
ITEM: ATOMS id type x y z shapex shapey shapez
1 3 2.44002e-05 1.5e-05 1.94002e-05 1.2e-05 1.2e-05 8e-06
2 3 1.76134e-05 1.5e-05 1.26134e-05 1.8e-05 1.8e-05 6e-06
ITEM: TIMESTEP
26
ITEM: NUMBER OF ATOMS
2
ITEM: BOX BOUNDS ff ff ff
0.0000000000000000e+00 5.0000000000000002e-05
0.0000000000000000e+00 5.0000000000000002e-05
0.0000000000000000e+00 3.0000000000000001e-05
ITEM: ATOMS id type x y z shapex shapey shapez
1 3 2.44155e-05 1.5e-05 1.94155e-05 1.2e-05 1.2e-05 8e-06
2 3 1.7596e-05 1.5e-05 1.2596e-05 1.8e-05 1.8e-05 6e-06
ITEM: TIMESTEP
27
ITEM: NUMBER OF ATOMS
2
ITEM: BOX BOUNDS ff ff ff
0.0000000000000000e+00 5.0000000000000002e-05
0.0000000000000000e+00 5.0000000000000002e-05
0.0000000000000000e+00 3.0000000000000001e-05
ITEM: ATOMS id type x y z shapex shapey shapez
1 3 2.44285e-05 1.5e-05 1.94285e-05 1.2e-05 1.2e-05 8e-06
2 3 1.75813e-05 1.5e-05 1.25813e-05 1.8e-05 1.8e-05 6e-06
ITEM: TIMESTEP
28
ITEM: NUMBER OF ATOMS
2
ITEM: BOX BOUNDS ff ff ff
0.0000000000000000e+00 5.0000000000000002e-05
0.0000000000000000e+00 5.0000000000000002e-05
0.0000000000000000e+00 3.0000000000000001e-05
ITEM: ATOMS id type x y z shapex shapey shapez
1 3 2.44394e-05 1.5e-05 1.94394e-05 1.2e-05 1.2e-05 8e-06
2 3 1.75689e-05 1.5e-05 1.25689e-05 1.8e-05 1.8e-05 6e-06
ITEM: TIMESTEP
29
ITEM: NUMBER OF ATOMS
2
ITEM: BOX BOUNDS ff ff ff
0.0000000000000000e+00 5.0000000000000002e-05
0.0000000000000000e+00 5.0000000000000002e-05
0.0000000000000000e+00 3.0000000000000001e-05
ITEM: ATOMS id type x y z shapex shapey shapez
1 3 2.44488e-05 1.5e-05 1.94488e-05 1.2e-05 1.2e-05 8e-06
2 3 1.75583e-05 1.5e-05 1.25583e-05 1.8e-05 1.8e-05 6e-06
ITEM: TIMESTEP
30
ITEM: NUMBER OF ATOMS
2
ITEM: BOX BOUNDS ff ff ff
0.0000000000000000e+00 5.0000000000000002e-05
0.0000000000000000e+00 5.0000000000000002e-05
0.0000000000000000e+00 3.0000000000000001e-05
ITEM: ATOMS id type x y z shapex shapey shapez
1 3 2.44566e-05 1.5e-05 1.94566e-05 1.2e-05 1.2e-05 8e-06
2 3 1.75493e-05 1.5e-05 1.25493e-05 1.8e-05 1.8e-05 6e-06
ITEM: TIMESTEP
31
ITEM: NUMBER OF ATOMS
2
ITEM: BOX BOUNDS ff ff ff
0.0000000000000000e+00 5.0000000000000002e-05
0.0000000000000000e+00 5.0000000000000002e-05
0.0000000000000000e+00 3.0000000000000001e-05
ITEM: ATOMS id type x y z shapex shapey shapez
1 3 2.44633e-05 1.5e-05 1.94633e-05 1.2e-05 1.2e-05 8e-06
2 3 1.75417e-05 1.5e-05 1.25417e-05 1.8e-05 1.8e-05 6e-06
ITEM: TIMESTEP
32
ITEM: NUMBER OF ATOMS
2
ITEM: BOX BOUNDS ff ff ff
0.0000000000000000e+00 5.0000000000000002e-05
0.0000000000000000e+00 5.0000000000000002e-05
0.0000000000000000e+00 3.0000000000000001e-05
ITEM: ATOMS id type x y z shapex shapey shapez
1 3 2.4469e-05 1.5e-05 1.9469e-05 1.2e-05 1.2e-05 8e-06
2 3 1.75353e-05 1.5e-05 1.25353e-05 1.8e-05 1.8e-05 6e-06
ITEM: TIMESTEP
33
ITEM: NUMBER OF ATOMS
2
ITEM: BOX BOUNDS ff ff ff
0.0000000000000000e+00 5.0000000000000002e-05
0.0000000000000000e+00 5.0000000000000002e-05
0.0000000000000000e+00 3.0000000000000001e-05
ITEM: ATOMS id type x y z shapex shapey shapez
1 3 2.44738e-05 1.5e-05 1.94738e-05 1.2e-05 1.2e-05 8e-06
2 3 1.75299e-05 1.5e-05 1.25299e-05 1.8e-05 1.8e-05 6e-06
ITEM: TIMESTEP
34
ITEM: NUMBER OF ATOMS
2
ITEM: BOX BOUNDS ff ff ff
0.0000000000000000e+00 5.0000000000000002e-05
0.0000000000000000e+00 5.0000000000000002e-05
0.0000000000000000e+00 3.0000000000000001e-05
ITEM: ATOMS id type x y z shapex shapey shapez
1 3 2.44778e-05 1.5e-05 1.94778e-05 1.2e-05 1.2e-05 8e-06
2 3 1.75253e-05 1.5e-05 1.25253e-05 1.8e-05 1.8e-05 6e-06
ITEM: TIMESTEP
35
ITEM: NUMBER OF ATOMS
2
ITEM: BOX BOUNDS ff ff ff
0.0000000000000000e+00 5.0000000000000002e-05
0.0000000000000000e+00 5.0000000000000002e-05
0.0000000000000000e+00 3.0000000000000001e-05
ITEM: ATOMS id type x y z shapex shapey shapez
1 3 2.44812e-05 1.5e-05 1.94812e-05 1.2e-05 1.2e-05 8e-06
2 3 1.75214e-05 1.5e-05 1.25214e-05 1.8e-05 1.8e-05 6e-06
ITEM: TIMESTEP
36
ITEM: NUMBER OF ATOMS
2
ITEM: BOX BOUNDS ff ff ff
0.0000000000000000e+00 5.0000000000000002e-05
0.0000000000000000e+00 5.0000000000000002e-05
0.0000000000000000e+00 3.0000000000000001e-05
ITEM: ATOMS id type x y z shapex shapey shapez
1 3 2.44841e-05 1.5e-05 1.94841e-05 1.2e-05 1.2e-05 8e-06
2 3 1.75181e-05 1.5e-05 1.25181e-05 1.8e-05 1.8e-05 6e-06
ITEM: TIMESTEP
37
ITEM: NUMBER OF ATOMS
2
ITEM: BOX BOUNDS ff ff ff
0.0000000000000000e+00 5.0000000000000002e-05
0.0000000000000000e+00 5.0000000000000002e-05
0.0000000000000000e+00 3.0000000000000001e-05
ITEM: ATOMS id type x y z shapex shapey shapez
1 3 2.44866e-05 1.5e-05 1.94866e-05 1.2e-05 1.2e-05 8e-06
2 3 1.75153e-05 1.5e-05 1.25153e-05 1.8e-05 1.8e-05 6e-06
ITEM: TIMESTEP
38
ITEM: NUMBER OF ATOMS
2
ITEM: BOX BOUNDS ff ff ff
0.0000000000000000e+00 5.0000000000000002e-05
0.0000000000000000e+00 5.0000000000000002e-05
0.0000000000000000e+00 3.0000000000000001e-05
ITEM: ATOMS id type x y z shapex shapey shapez
1 3 2.44886e-05 1.5e-05 1.94886e-05 1.2e-05 1.2e-05 8e-06
2 3 1.75129e-05 1.5e-05 1.25129e-05 1.8e-05 1.8e-05 6e-06
ITEM: TIMESTEP
39
ITEM: NUMBER OF ATOMS
2
ITEM: BOX BOUNDS ff ff ff
0.0000000000000000e+00 5.0000000000000002e-05
0.0000000000000000e+00 5.0000000000000002e-05
0.0000000000000000e+00 3.0000000000000001e-05
ITEM: ATOMS id type x y z shapex shapey shapez
1 3 2.44904e-05 1.5e-05 1.94904e-05 1.2e-05 1.2e-05 8e-06
2 3 1.75109e-05 1.5e-05 1.25109e-05 1.8e-05 1.8e-05 6e-06
ITEM: TIMESTEP
40
ITEM: NUMBER OF ATOMS
2
ITEM: BOX BOUNDS ff ff ff
0.0000000000000000e+00 5.0000000000000002e-05
0.0000000000000000e+00 5.0000000000000002e-05
0.0000000000000000e+00 3.0000000000000001e-05
ITEM: ATOMS id type x y z shapex shapey shapez
1 3 2.44919e-05 1.5e-05 1.94919e-05 1.2e-05 1.2e-05 8e-06
2 3 1.75092e-05 1.5e-05 1.25092e-05 1.8e-05 1.8e-05 6e-06
ITEM: TIMESTEP
41
ITEM: NUMBER OF ATOMS
2
ITEM: BOX BOUNDS ff ff ff
0.0000000000000000e+00 5.0000000000000002e-05
0.0000000000000000e+00 5.0000000000000002e-05
0.0000000000000000e+00 3.0000000000000001e-05
ITEM: ATOMS id type x y z shapex shapey shapez
1 3 2.44931e-05 1.5e-05 1.94931e-05 1.2e-05 1.2e-05 8e-06
2 3 1.75078e-05 1.5e-05 1.25078e-05 1.8e-05 1.8e-05 6e-06
ITEM: TIMESTEP
42
ITEM: NUMBER OF ATOMS
2
ITEM: BOX BOUNDS ff ff ff
0.0000000000000000e+00 5.0000000000000002e-05
0.0000000000000000e+00 5.0000000000000002e-05
0.0000000000000000e+00 3.0000000000000001e-05
ITEM: ATOMS id type x y z shapex shapey shapez
1 3 2.44942e-05 1.5e-05 1.94942e-05 1.2e-05 1.2e-05 8e-06
2 3 1.75066e-05 1.5e-05 1.25066e-05 1.8e-05 1.8e-05 6e-06
ITEM: TIMESTEP
43
ITEM: NUMBER OF ATOMS
2
ITEM: BOX BOUNDS ff ff ff
0.0000000000000000e+00 5.0000000000000002e-05
0.0000000000000000e+00 5.0000000000000002e-05
0.0000000000000000e+00 3.0000000000000001e-05
ITEM: ATOMS id type x y z shapex shapey shapez
1 3 2.44951e-05 1.5e-05 1.94951e-05 1.2e-05 1.2e-05 8e-06
2 3 1.75056e-05 1.5e-05 1.25056e-05 1.8e-05 1.8e-05 6e-06
ITEM: TIMESTEP
44
ITEM: NUMBER OF ATOMS
2
ITEM: BOX BOUNDS ff ff ff
0.0000000000000000e+00 5.0000000000000002e-05
0.0000000000000000e+00 5.0000000000000002e-05
0.0000000000000000e+00 3.0000000000000001e-05
ITEM: ATOMS id type x y z shapex shapey shapez
1 3 2.44958e-05 1.5e-05 1.94958e-05 1.2e-05 1.2e-05 8e-06
2 3 1.75047e-05 1.5e-05 1.25047e-05 1.8e-05 1.8e-05 6e-06
ITEM: TIMESTEP
45
ITEM: NUMBER OF ATOMS
2
ITEM: BOX BOUNDS ff ff ff
0.0000000000000000e+00 5.0000000000000002e-05
0.0000000000000000e+00 5.0000000000000002e-05
0.0000000000000000e+00 3.0000000000000001e-05
ITEM: ATOMS id type x y z shapex shapey shapez
1 3 2.44965e-05 1.5e-05 1.94965e-05 1.2e-05 1.2e-05 8e-06
2 3 1.7504e-05 1.5e-05 1.2504e-05 1.8e-05 1.8e-05 6e-06
ITEM: TIMESTEP
46
ITEM: NUMBER OF ATOMS
2
ITEM: BOX BOUNDS ff ff ff
0.0000000000000000e+00 5.0000000000000002e-05
0.0000000000000000e+00 5.0000000000000002e-05
0.0000000000000000e+00 3.0000000000000001e-05
ITEM: ATOMS id type x y z shapex shapey shapez
1 3 2.4497e-05 1.5e-05 1.9497e-05 1.2e-05 1.2e-05 8e-06
2 3 1.75034e-05 1.5e-05 1.25034e-05 1.8e-05 1.8e-05 6e-06
ITEM: TIMESTEP
47
ITEM: NUMBER OF ATOMS
2
ITEM: BOX BOUNDS ff ff ff
0.0000000000000000e+00 5.0000000000000002e-05
0.0000000000000000e+00 5.0000000000000002e-05
0.0000000000000000e+00 3.0000000000000001e-05
ITEM: ATOMS id type x y z shapex shapey shapez
1 3 2.44975e-05 1.5e-05 1.94975e-05 1.2e-05 1.2e-05 8e-06
2 3 1.75029e-05 1.5e-05 1.25029e-05 1.8e-05 1.8e-05 6e-06
ITEM: TIMESTEP
48
ITEM: NUMBER OF ATOMS
2
ITEM: BOX BOUNDS ff ff ff
0.0000000000000000e+00 5.0000000000000002e-05
0.0000000000000000e+00 5.0000000000000002e-05
0.0000000000000000e+00 3.0000000000000001e-05
ITEM: ATOMS id type x y z shapex shapey shapez
1 3 2.44979e-05 1.5e-05 1.94979e-05 1.2e-05 1.2e-05 8e-06
2 3 1.75024e-05 1.5e-05 1.25024e-05 1.8e-05 1.8e-05 6e-06
ITEM: TIMESTEP
49
ITEM: NUMBER OF ATOMS
2
ITEM: BOX BOUNDS ff ff ff
0.0000000000000000e+00 5.0000000000000002e-05
0.0000000000000000e+00 5.0000000000000002e-05
0.0000000000000000e+00 3.0000000000000001e-05
ITEM: ATOMS id type x y z shapex shapey shapez
1 3 2.44982e-05 1.5e-05 1.94982e-05 1.2e-05 1.2e-05 8e-06
2 3 1.7502e-05 1.5e-05 1.2502e-05 1.8e-05 1.8e-05 6e-06
ITEM: TIMESTEP
50
ITEM: NUMBER OF ATOMS
2
ITEM: BOX BOUNDS ff ff ff
0.0000000000000000e+00 5.0000000000000002e-05
0.0000000000000000e+00 5.0000000000000002e-05
0.0000000000000000e+00 3.0000000000000001e-05
ITEM: ATOMS id type x y z shapex shapey shapez
1 3 2.44985e-05 1.5e-05 1.94985e-05 1.2e-05 1.2e-05 8e-06
2 3 1.75017e-05 1.5e-05 1.25017e-05 1.8e-05 1.8e-05 6e-06
ITEM: TIMESTEP
51
ITEM: NUMBER OF ATOMS
2
ITEM: BOX BOUNDS ff ff ff
0.0000000000000000e+00 5.0000000000000002e-05
0.0000000000000000e+00 5.0000000000000002e-05
0.0000000000000000e+00 3.0000000000000001e-05
ITEM: ATOMS id type x y z shapex shapey shapez
1 3 2.44987e-05 1.5e-05 1.94987e-05 1.2e-05 1.2e-05 8e-06
2 3 1.75015e-05 1.5e-05 1.25015e-05 1.8e-05 1.8e-05 6e-06
ITEM: TIMESTEP
52
ITEM: NUMBER OF ATOMS
2
ITEM: BOX BOUNDS ff ff ff
0.0000000000000000e+00 5.0000000000000002e-05
0.0000000000000000e+00 5.0000000000000002e-05
0.0000000000000000e+00 3.0000000000000001e-05
ITEM: ATOMS id type x y z shapex shapey shapez
1 3 2.44989e-05 1.5e-05 1.94989e-05 1.2e-05 1.2e-05 8e-06
2 3 1.75012e-05 1.5e-05 1.25012e-05 1.8e-05 1.8e-05 6e-06
ITEM: TIMESTEP
53
ITEM: NUMBER OF ATOMS
2
ITEM: BOX BOUNDS ff ff ff
0.0000000000000000e+00 5.0000000000000002e-05
0.0000000000000000e+00 5.0000000000000002e-05
0.0000000000000000e+00 3.0000000000000001e-05
ITEM: ATOMS id type x y z shapex shapey shapez
1 3 2.44991e-05 1.5e-05 1.94991e-05 1.2e-05 1.2e-05 8e-06
2 3 1.7501e-05 1.5e-05 1.2501e-05 1.8e-05 1.8e-05 6e-06
ITEM: TIMESTEP
54
ITEM: NUMBER OF ATOMS
2
ITEM: BOX BOUNDS ff ff ff
0.0000000000000000e+00 5.0000000000000002e-05
0.0000000000000000e+00 5.0000000000000002e-05
0.0000000000000000e+00 3.0000000000000001e-05
ITEM: ATOMS id type x y z shapex shapey shapez
1 3 2.44992e-05 1.5e-05 1.94992e-05 1.2e-05 1.2e-05 8e-06
2 3 1.75009e-05 1.5e-05 1.25009e-05 1.8e-05 1.8e-05 6e-06
ITEM: TIMESTEP
55
ITEM: NUMBER OF ATOMS
2
ITEM: BOX BOUNDS ff ff ff
0.0000000000000000e+00 5.0000000000000002e-05
0.0000000000000000e+00 5.0000000000000002e-05
0.0000000000000000e+00 3.0000000000000001e-05
ITEM: ATOMS id type x y z shapex shapey shapez
1 3 2.44993e-05 1.5e-05 1.94993e-05 1.2e-05 1.2e-05 8e-06
2 3 1.75007e-05 1.5e-05 1.25007e-05 1.8e-05 1.8e-05 6e-06
ITEM: TIMESTEP
56
ITEM: NUMBER OF ATOMS
2
ITEM: BOX BOUNDS ff ff ff
0.0000000000000000e+00 5.0000000000000002e-05
0.0000000000000000e+00 5.0000000000000002e-05
0.0000000000000000e+00 3.0000000000000001e-05
ITEM: ATOMS id type x y z shapex shapey shapez
1 3 2.44994e-05 1.5e-05 1.94994e-05 1.2e-05 1.2e-05 8e-06
2 3 1.75006e-05 1.5e-05 1.25006e-05 1.8e-05 1.8e-05 6e-06
ITEM: TIMESTEP
57
ITEM: NUMBER OF ATOMS
2
ITEM: BOX BOUNDS ff ff ff
0.0000000000000000e+00 5.0000000000000002e-05
0.0000000000000000e+00 5.0000000000000002e-05
0.0000000000000000e+00 3.0000000000000001e-05
ITEM: ATOMS id type x y z shapex shapey shapez
1 3 2.44995e-05 1.5e-05 1.94995e-05 1.2e-05 1.2e-05 8e-06
2 3 1.75005e-05 1.5e-05 1.25005e-05 1.8e-05 1.8e-05 6e-06
ITEM: TIMESTEP
58
ITEM: NUMBER OF ATOMS
2
ITEM: BOX BOUNDS ff ff ff
0.0000000000000000e+00 5.0000000000000002e-05
0.0000000000000000e+00 5.0000000000000002e-05
0.0000000000000000e+00 3.0000000000000001e-05
ITEM: ATOMS id type x y z shapex shapey shapez
1 3 2.44996e-05 1.5e-05 1.94996e-05 1.2e-05 1.2e-05 8e-06
2 3 1.75005e-05 1.5e-05 1.25005e-05 1.8e-05 1.8e-05 6e-06
ITEM: TIMESTEP
59
ITEM: NUMBER OF ATOMS
2
ITEM: BOX BOUNDS ff ff ff
0.0000000000000000e+00 5.0000000000000002e-05
0.0000000000000000e+00 5.0000000000000002e-05
0.0000000000000000e+00 3.0000000000000001e-05
ITEM: ATOMS id type x y z shapex shapey shapez
1 3 2.44997e-05 1.5e-05 1.94997e-05 1.2e-05 1.2e-05 8e-06
2 3 1.75004e-05 1.5e-05 1.25004e-05 1.8e-05 1.8e-05 6e-06
ITEM: TIMESTEP
60
ITEM: NUMBER OF ATOMS
2
ITEM: BOX BOUNDS ff ff ff
0.0000000000000000e+00 5.0000000000000002e-05
0.0000000000000000e+00 5.0000000000000002e-05
0.0000000000000000e+00 3.0000000000000001e-05
ITEM: ATOMS id type x y z shapex shapey shapez
1 3 2.44997e-05 1.5e-05 1.94997e-05 1.2e-05 1.2e-05 8e-06
2 3 1.75003e-05 1.5e-05 1.25003e-05 1.8e-05 1.8e-05 6e-06
ITEM: TIMESTEP
61
ITEM: NUMBER OF ATOMS
2
ITEM: BOX BOUNDS ff ff ff
0.0000000000000000e+00 5.0000000000000002e-05
0.0000000000000000e+00 5.0000000000000002e-05
0.0000000000000000e+00 3.0000000000000001e-05
ITEM: ATOMS id type x y z shapex shapey shapez
1 3 2.44998e-05 1.5e-05 1.94998e-05 1.2e-05 1.2e-05 8e-06
2 3 1.75003e-05 1.5e-05 1.25003e-05 1.8e-05 1.8e-05 6e-06
ITEM: TIMESTEP
62
ITEM: NUMBER OF ATOMS
2
ITEM: BOX BOUNDS ff ff ff
0.0000000000000000e+00 5.0000000000000002e-05
0.0000000000000000e+00 5.0000000000000002e-05
0.0000000000000000e+00 3.0000000000000001e-05
ITEM: ATOMS id type x y z shapex shapey shapez
1 3 2.44998e-05 1.5e-05 1.94998e-05 1.2e-05 1.2e-05 8e-06
2 3 1.75002e-05 1.5e-05 1.25002e-05 1.8e-05 1.8e-05 6e-06
ITEM: TIMESTEP
63
ITEM: NUMBER OF ATOMS
2
ITEM: BOX BOUNDS ff ff ff
0.0000000000000000e+00 5.0000000000000002e-05
0.0000000000000000e+00 5.0000000000000002e-05
0.0000000000000000e+00 3.0000000000000001e-05
ITEM: ATOMS id type x y z shapex shapey shapez
1 3 2.44998e-05 1.5e-05 1.94998e-05 1.2e-05 1.2e-05 8e-06
2 3 1.75002e-05 1.5e-05 1.25002e-05 1.8e-05 1.8e-05 6e-06
ITEM: TIMESTEP
64
ITEM: NUMBER OF ATOMS
2
ITEM: BOX BOUNDS ff ff ff
0.0000000000000000e+00 5.0000000000000002e-05
0.0000000000000000e+00 5.0000000000000002e-05
0.0000000000000000e+00 3.0000000000000001e-05
ITEM: ATOMS id type x y z shapex shapey shapez
1 3 2.44999e-05 1.5e-05 1.94999e-05 1.2e-05 1.2e-05 8e-06
2 3 1.75002e-05 1.5e-05 1.25002e-05 1.8e-05 1.8e-05 6e-06
ITEM: TIMESTEP
65
ITEM: NUMBER OF ATOMS
2
ITEM: BOX BOUNDS ff ff ff
0.0000000000000000e+00 5.0000000000000002e-05
0.0000000000000000e+00 5.0000000000000002e-05
0.0000000000000000e+00 3.0000000000000001e-05
ITEM: ATOMS id type x y z shapex shapey shapez
1 3 2.44999e-05 1.5e-05 1.94999e-05 1.2e-05 1.2e-05 8e-06
2 3 1.75001e-05 1.5e-05 1.25001e-05 1.8e-05 1.8e-05 6e-06
ITEM: TIMESTEP
66
ITEM: NUMBER OF ATOMS
2
ITEM: BOX BOUNDS ff ff ff
0.0000000000000000e+00 5.0000000000000002e-05
0.0000000000000000e+00 5.0000000000000002e-05
0.0000000000000000e+00 3.0000000000000001e-05
ITEM: ATOMS id type x y z shapex shapey shapez
1 3 2.44999e-05 1.5e-05 1.94999e-05 1.2e-05 1.2e-05 8e-06
2 3 1.75001e-05 1.5e-05 1.25001e-05 1.8e-05 1.8e-05 6e-06
ITEM: TIMESTEP
67
ITEM: NUMBER OF ATOMS
2
ITEM: BOX BOUNDS ff ff ff
0.0000000000000000e+00 5.0000000000000002e-05
0.0000000000000000e+00 5.0000000000000002e-05
0.0000000000000000e+00 3.0000000000000001e-05
ITEM: ATOMS id type x y z shapex shapey shapez
1 3 2.44999e-05 1.5e-05 1.94999e-05 1.2e-05 1.2e-05 8e-06
2 3 1.75001e-05 1.5e-05 1.25001e-05 1.8e-05 1.8e-05 6e-06
ITEM: TIMESTEP
68
ITEM: NUMBER OF ATOMS
2
ITEM: BOX BOUNDS ff ff ff
0.0000000000000000e+00 5.0000000000000002e-05
0.0000000000000000e+00 5.0000000000000002e-05
0.0000000000000000e+00 3.0000000000000001e-05
ITEM: ATOMS id type x y z shapex shapey shapez
1 3 2.44999e-05 1.5e-05 1.94999e-05 1.2e-05 1.2e-05 8e-06
2 3 1.75001e-05 1.5e-05 1.25001e-05 1.8e-05 1.8e-05 6e-06
ITEM: TIMESTEP
69
ITEM: NUMBER OF ATOMS
2
ITEM: BOX BOUNDS ff ff ff
0.0000000000000000e+00 5.0000000000000002e-05
0.0000000000000000e+00 5.0000000000000002e-05
0.0000000000000000e+00 3.0000000000000001e-05
ITEM: ATOMS id type x y z shapex shapey shapez
1 3 2.44999e-05 1.5e-05 1.94999e-05 1.2e-05 1.2e-05 8e-06
2 3 1.75001e-05 1.5e-05 1.25001e-05 1.8e-05 1.8e-05 6e-06
ITEM: TIMESTEP
70
ITEM: NUMBER OF ATOMS
2
ITEM: BOX BOUNDS ff ff ff
0.0000000000000000e+00 5.0000000000000002e-05
0.0000000000000000e+00 5.0000000000000002e-05
0.0000000000000000e+00 3.0000000000000001e-05
ITEM: ATOMS id type x y z shapex shapey shapez
1 3 2.44999e-05 1.5e-05 1.94999e-05 1.2e-05 1.2e-05 8e-06
2 3 1.75001e-05 1.5e-05 1.25001e-05 1.8e-05 1.8e-05 6e-06
ITEM: TIMESTEP
71
ITEM: NUMBER OF ATOMS
2
ITEM: BOX BOUNDS ff ff ff
0.0000000000000000e+00 5.0000000000000002e-05
0.0000000000000000e+00 5.0000000000000002e-05
0.0000000000000000e+00 3.0000000000000001e-05
ITEM: ATOMS id type x y z shapex shapey shapez
1 3 2.45e-05 1.5e-05 1.95e-05 1.2e-05 1.2e-05 8e-06
2 3 1.75001e-05 1.5e-05 1.25001e-05 1.8e-05 1.8e-05 6e-06
ITEM: TIMESTEP
72
ITEM: NUMBER OF ATOMS
2
ITEM: BOX BOUNDS ff ff ff
0.0000000000000000e+00 5.0000000000000002e-05
0.0000000000000000e+00 5.0000000000000002e-05
0.0000000000000000e+00 3.0000000000000001e-05
ITEM: ATOMS id type x y z shapex shapey shapez
1 3 2.45e-05 1.5e-05 1.95e-05 1.2e-05 1.2e-05 8e-06
2 3 1.75e-05 1.5e-05 1.25e-05 1.8e-05 1.8e-05 6e-06
ITEM: TIMESTEP
73
ITEM: NUMBER OF ATOMS
2
ITEM: BOX BOUNDS ff ff ff
0.0000000000000000e+00 5.0000000000000002e-05
0.0000000000000000e+00 5.0000000000000002e-05
0.0000000000000000e+00 3.0000000000000001e-05
ITEM: ATOMS id type x y z shapex shapey shapez
1 3 2.45e-05 1.5e-05 1.95e-05 1.2e-05 1.2e-05 8e-06
2 3 1.75e-05 1.5e-05 1.25e-05 1.8e-05 1.8e-05 6e-06
ITEM: TIMESTEP
74
ITEM: NUMBER OF ATOMS
2
ITEM: BOX BOUNDS ff ff ff
0.0000000000000000e+00 5.0000000000000002e-05
0.0000000000000000e+00 5.0000000000000002e-05
0.0000000000000000e+00 3.0000000000000001e-05
ITEM: ATOMS id type x y z shapex shapey shapez
1 3 2.45e-05 1.5e-05 1.95e-05 1.2e-05 1.2e-05 8e-06
2 3 1.75e-05 1.5e-05 1.25e-05 1.8e-05 1.8e-05 6e-06
ITEM: TIMESTEP
75
ITEM: NUMBER OF ATOMS
2
ITEM: BOX BOUNDS ff ff ff
0.0000000000000000e+00 5.0000000000000002e-05
0.0000000000000000e+00 5.0000000000000002e-05
0.0000000000000000e+00 3.0000000000000001e-05
ITEM: ATOMS id type x y z shapex shapey shapez
1 3 2.45e-05 1.5e-05 1.95e-05 1.2e-05 1.2e-05 8e-06
2 3 1.75e-05 1.5e-05 1.25e-05 1.8e-05 1.8e-05 6e-06
ITEM: TIMESTEP
76
ITEM: NUMBER OF ATOMS
2
ITEM: BOX BOUNDS ff ff ff
0.0000000000000000e+00 5.0000000000000002e-05
0.0000000000000000e+00 5.0000000000000002e-05
0.0000000000000000e+00 3.0000000000000001e-05
ITEM: ATOMS id type x y z shapex shapey shapez
1 3 2.45e-05 1.5e-05 1.95e-05 1.2e-05 1.2e-05 8e-06
2 3 1.75e-05 1.5e-05 1.25e-05 1.8e-05 1.8e-05 6e-06
ITEM: TIMESTEP
77
ITEM: NUMBER OF ATOMS
2
ITEM: BOX BOUNDS ff ff ff
0.0000000000000000e+00 5.0000000000000002e-05
0.0000000000000000e+00 5.0000000000000002e-05
0.0000000000000000e+00 3.0000000000000001e-05
ITEM: ATOMS id type x y z shapex shapey shapez
1 3 2.45e-05 1.5e-05 1.95e-05 1.2e-05 1.2e-05 8e-06
2 3 1.75e-05 1.5e-05 1.25e-05 1.8e-05 1.8e-05 6e-06
ITEM: TIMESTEP
78
ITEM: NUMBER OF ATOMS
2
ITEM: BOX BOUNDS ff ff ff
0.0000000000000000e+00 5.0000000000000002e-05
0.0000000000000000e+00 5.0000000000000002e-05
0.0000000000000000e+00 3.0000000000000001e-05
ITEM: ATOMS id type x y z shapex shapey shapez
1 3 2.45e-05 1.5e-05 1.95e-05 1.2e-05 1.2e-05 8e-06
2 3 1.75e-05 1.5e-05 1.25e-05 1.8e-05 1.8e-05 6e-06
ITEM: TIMESTEP
79
ITEM: NUMBER OF ATOMS
2
ITEM: BOX BOUNDS ff ff ff
0.0000000000000000e+00 5.0000000000000002e-05
0.0000000000000000e+00 5.0000000000000002e-05
0.0000000000000000e+00 3.0000000000000001e-05
ITEM: ATOMS id type x y z shapex shapey shapez
1 3 2.45e-05 1.5e-05 1.95e-05 1.2e-05 1.2e-05 8e-06
2 3 1.75e-05 1.5e-05 1.25e-05 1.8e-05 1.8e-05 6e-06
ITEM: TIMESTEP
80
ITEM: NUMBER OF ATOMS
2
ITEM: BOX BOUNDS ff ff ff
0.0000000000000000e+00 5.0000000000000002e-05
0.0000000000000000e+00 5.0000000000000002e-05
0.0000000000000000e+00 3.0000000000000001e-05
ITEM: ATOMS id type x y z shapex shapey shapez
1 3 2.45e-05 1.5e-05 1.95e-05 1.2e-05 1.2e-05 8e-06
2 3 1.75e-05 1.5e-05 1.25e-05 1.8e-05 1.8e-05 6e-06
ITEM: TIMESTEP
81
ITEM: NUMBER OF ATOMS
2
ITEM: BOX BOUNDS ff ff ff
0.0000000000000000e+00 5.0000000000000002e-05
0.0000000000000000e+00 5.0000000000000002e-05
0.0000000000000000e+00 3.0000000000000001e-05
ITEM: ATOMS id type x y z shapex shapey shapez